material_id,formula,elements,num_elements,energy_above_hull,crystal_system,spacegroup_number,spacegroup_symbol,band_gap,theoretical,is_metal
mp-17909,SiO2,"O, Si",2,0.02138735666666669,Trigonal,166,R-3m,5.7313,False,False
mp-28233,MnCl2,"Cl, Mn",2,0.0,Trigonal,166,R-3m,1.7925999999999997,False,False
mp-1216530,TlPb,"Pb, Tl",2,0.0014120250000075885,Trigonal,166,R-3m,0.0,True,True
mp-1190097,Ce2Ir7,"Ce, Ir",2,0.014709150185186814,Trigonal,166,R-3m,0.0,False,True
mp-2699,CaSi2,"Ca, Si",2,0.0,Trigonal,166,R-3m,0.0,False,True
mp-692,Tb2C,"C, Tb",2,0.0,Trigonal,166,R-3m,0.0,False,True
mp-1094617,MgGa,"Ga, Mg",2,0.06182554000000007,Trigonal,166,R-3m,0.0,True,True
mp-1226395,CoMo,"Co, Mo",2,0.009386806602563524,Trigonal,166,R-3m,0.0,True,True
mp-1038887,CeMg,"Ce, Mg",2,0.04888529833333166,Trigonal,166,R-3m,0.0,True,True
mp-843,Th2Fe17,"Fe, Th",2,0.016285482631580805,Trigonal,166,R-3m,0.0,False,True
mp-1225687,CuNi,"Cu, Ni",2,0.04142861000000053,Trigonal,166,R-3m,0.0,True,True
mp-30574,CsGa7,"Cs, Ga",2,0.0,Trigonal,166,R-3m,0.0,False,True
mp-1473,Fe7W6,"Fe, W",2,0.0026645362499966296,Trigonal,166,R-3m,0.0,False,True
mp-411,ErCo3,"Co, Er",2,0.0,Trigonal,166,R-3m,0.0,False,True
mp-1106237,DyAl3,"Al, Dy",2,0.013739592500000342,Trigonal,166,R-3m,0.0,False,True
mp-30711,Nd2Zn17,"Nd, Zn",2,0.0,Trigonal,166,R-3m,0.0,False,True
mp-715558,Fe3O4,"Fe, O",2,0.07850628571428864,Trigonal,166,R-3m,0.0019000000000000128,True,False
mp-571095,Na7Ga13,"Ga, Na",2,0.0,Trigonal,166,R-3m,0.0,False,True
mp-1102049,TaBe3,"Be, Ta",2,0.0,Trigonal,166,R-3m,0.0,False,True
mp-973850,HoGa3,"Ga, Ho",2,0.01549507474999734,Trigonal,166,R-3m,0.0,False,True
mp-1102445,PrNi3,"Ni, Pr",2,0.0,Trigonal,166,R-3m,0.0,False,True
mp-1038972,MgCd,"Cd, Mg",2,0.06349802250000103,Trigonal,166,R-3m,0.0,True,True
mp-1220799,NbNi,"Nb, Ni",2,0.01428379791025769,Trigonal,166,R-3m,0.0,True,True
mp-1229032,AgPt4,"Ag, Pt",2,0.008742394000002207,Trigonal,166,R-3m,0.0,True,True
mp-1220270,Nd2Tm,"Nd, Tm",2,0.044626651666664685,Trigonal,166,R-3m,0.0,True,True
mp-30963,Er2Zn17,"Er, Zn",2,0.0,Trigonal,166,R-3m,0.0,False,True
mp-1106216,Ho2Co17,"Co, Ho",2,0.000367978684209902,Trigonal,166,R-3m,0.0,False,True
mp-1103826,Ta7Fe6,"Fe, Ta",2,0.0,Trigonal,166,R-3m,0.0,False,True
mp-1219741,PrTh,"Pr, Th",2,0.06565044916667517,Trigonal,166,R-3m,0.0,True,True
mp-27919,Ti8C5,"C, Ti",2,0.0,Trigonal,166,R-3m,0.0,False,True
mp-862656,ErAl3,"Al, Er",2,0.0025044782499996643,Trigonal,166,R-3m,0.0,False,True
mp-2042,HoNi3,"Ho, Ni",2,0.0,Trigonal,166,R-3m,0.0,False,True
mp-755413,Na2O,"Na, O",2,0.07897297833333283,Trigonal,166,R-3m,1.0889,True,False
mp-542458,Ce2Zn17,"Ce, Zn",2,0.0,Trigonal,166,R-3m,0.0,False,True
mp-1095561,NdNi3,"Nd, Ni",2,0.0,Trigonal,166,R-3m,0.0,False,True
mp-1102187,SmFe3,"Fe, Sm",2,0.0075011095833339425,Trigonal,166,R-3m,0.0,False,True
mp-1226001,CoPd,"Co, Pd",2,0.09696019249999921,Trigonal,166,R-3m,0.0,True,True
mp-30634,HoFe3,"Fe, Ho",2,0.0,Trigonal,166,R-3m,0.0,False,True
mp-1220793,Na5Si34,"Na, Si",2,0.03118311310897326,Trigonal,166,R-3m,0.0,True,True
mp-581734,Gd2Fe17,"Fe, Gd",2,0.019156883684210868,Trigonal,166,R-3m,0.0,False,True
mp-1223919,IrRh,"Ir, Rh",2,0.0,Trigonal,166,R-3m,0.0,True,True
mp-33255,Ni15O16,"Ni, O",2,0.09999245209677543,Trigonal,166,R-3m,0.0,True,True
mp-1222034,MgAg4,"Ag, Mg",2,0.09069148666666749,Trigonal,166,R-3m,0.0,True,True
mp-1188333,Y2Co7,"Co, Y",2,0.07389264299145282,Trigonal,166,R-3m,0.0,False,True
mp-754353,Zr3N4,"N, Zr",2,0.051992941071429044,Trigonal,166,R-3m,0.9843999999999999,True,False
mp-1223706,La14Ag51,"Ag, La",2,0.0,Hexagonal,174,P-6,0.0,True,True
mp-1217439,Th7Se12,"Se, Th",2,0.0,Hexagonal,174,P-6,0.0,True,True
mp-1209515,Sr11Hg54,"Hg, Sr",2,0.028206061005016658,Hexagonal,174,P-6,0.0,True,True
mp-1217580,Th14Au51,"Au, Th",2,0.0,Hexagonal,174,P-6,0.0,True,True
mp-1225453,Er14Ag51,"Ag, Er",2,0.0,Hexagonal,174,P-6,0.0,True,True
mp-1219378,Sm14Ag51,"Ag, Sm",2,0.0,Hexagonal,174,P-6,0.0,True,True
mp-20414,U7Te12,"Te, U",2,0.027402353684209402,Hexagonal,174,P-6,0.0,False,True
mp-1225861,Dy14Au51,"Au, Dy",2,0.0,Hexagonal,174,P-6,0.0,True,True
mp-1217188,U7Se12,"Se, U",2,0.010082356541355253,Hexagonal,174,P-6,0.0,True,True
mp-1220890,Nd14Au51,"Au, Nd",2,0.0,Hexagonal,174,P-6,0.0,True,True
mp-1220280,Pr14Au51,"Au, Pr",2,0.0,Hexagonal,174,P-6,0.0,True,True
mp-1223670,La14Au51,"Au, La",2,0.0,Hexagonal,174,P-6,0.0,True,True
mp-9521,Th7Te12,"Te, Th",2,0.0,Hexagonal,174,P-6,0.0,False,True
mp-1225847,Dy14Ag51,"Ag, Dy",2,0.0,Hexagonal,174,P-6,0.0,True,True
mp-1216365,Y14Ag51,"Ag, Y",2,0.0,Hexagonal,174,P-6,0.0,True,True
mp-1217874,Tb14Ag51,"Ag, Tb",2,0.0,Hexagonal,174,P-6,0.0,True,True
mp-1220249,Pr14Ag51,"Ag, Pr",2,0.0,Hexagonal,174,P-6,0.0,True,True
mp-505626,Cr12P7,"Cr, P",2,0.0,Hexagonal,174,P-6,0.0,False,True
mp-1217388,Th7S12,"S, Th",2,0.0,Hexagonal,174,P-6,0.0,True,True
mp-1219385,Sm14Au51,"Au, Sm",2,0.0,Hexagonal,174,P-6,0.0,True,True
mp-1224563,Ho14Ag51,"Ag, Ho",2,0.0,Hexagonal,174,P-6,0.0,True,True
mp-1217575,Th14Ag51,"Ag, Th",2,0.0,Hexagonal,174,P-6,0.0,True,True
mp-1217878,Tb14Au51,"Au, Tb",2,0.0,Hexagonal,174,P-6,0.0,True,True
mp-1216441,Zr14Cu51,"Cu, Zr",2,0.0,Hexagonal,174,P-6,0.0,True,True
mp-684675,V12P7,"P, V",2,0.0,Hexagonal,174,P-6,0.0,True,True
mp-1217740,Th14Cu51,"Cu, Th",2,0.0,Hexagonal,174,P-6,0.0,True,True
mp-1224756,Hf14Cu51,"Cu, Hf",2,0.0,Hexagonal,174,P-6,0.0,True,True
mp-1227899,Ca14Hg51,"Ca, Hg",2,0.04105243992308516,Hexagonal,174,P-6,0.0,True,True
mp-1218949,Sr14Hg51,"Hg, Sr",2,0.014437364881270676,Hexagonal,174,P-6,0.0,True,True
mp-1220721,Nd14Ag51,"Ag, Nd",2,0.0,Hexagonal,174,P-6,0.0,True,True
mp-18536,AgF3,"Ag, F",2,0.0,Hexagonal,178,P6_122,0.2084999999999999,True,False
mp-30749,Zr5Ir3,"Ir, Zr",2,0.0,Hexagonal,178,P6_122,0.0,True,True
mp-1212499,Hf5Ir3,"Hf, Ir",2,0.0,Hexagonal,178,P6_122,0.0,True,True
mp-942,AuF3,"Au, F",2,0.0,Hexagonal,178,P6_122,1.5542,True,False
mp-1257168,SiO2,"O, Si",2,0.023082579777778278,Hexagonal,178,P6_122,5.5917,True,False
mp-554243,SiO2,"O, Si",2,0.01690631222222372,Hexagonal,179,P6_522,5.627,True,False
mp-23184,BCl3,"B, Cl",2,0.0,Hexagonal,176,P6_3/m,4.7135,False,False
mp-569895,EuCl3,"Cl, Eu",2,0.0,Hexagonal,176,P6_3/m,0.0,False,True
mp-570170,Mo15Se19,"Mo, Se",2,0.06381338147058813,Hexagonal,176,P6_3/m,0.0,False,True
mp-582011,CeCl3,"Ce, Cl",2,0.0,Hexagonal,176,P6_3/m,0.011099999999999888,False,False
mp-569850,CeBr3,"Br, Ce",2,0.0,Hexagonal,176,P6_3/m,0.0,False,True
mp-540855,Rb6O,"O, Rb",2,0.0010510348214283205,Hexagonal,176,P6_3/m,0.0,False,True
mp-1204241,Ca3Ge4,"Ca, Ge",2,0.009776764047618514,Hexagonal,176,P6_3/m,0.33119999999999994,True,False
mp-1014345,Cr3N4,"Cr, N",2,0.08334499285714081,Hexagonal,176,P6_3/m,0.0,True,True
mp-7564,Nb3Te4,"Nb, Te",2,0.0,Hexagonal,176,P6_3/m,0.0,False,True
mp-1105170,SnBr2,"Br, Sn",2,0.0019086244444430633,Hexagonal,176,P6_3/m,2.4179000000000004,False,False
mp-22918,PuCl3,"Cl, Pu",2,0.0,Hexagonal,176,P6_3/m,0.0,False,True
mp-13852,Ge3N4,"Ge, N",2,0.00020272428571388446,Hexagonal,176,P6_3/m,1.9025999999999996,False,False
mp-561,Nb3Se4,"Nb, Se",2,0.0,Hexagonal,176,P6_3/m,0.0,False,True
mp-1214046,Ca3Si4,"Ca, Si",2,0.0018231876190490937,Hexagonal,176,P6_3/m,0.4162000000000008,True,False
mp-23189,BI3,"B, I",2,0.0,Hexagonal,176,P6_3/m,2.6901,False,False
mp-23183,NdCl3,"Cl, Nd",2,0.0,Hexagonal,176,P6_3/m,4.299799999999999,False,False
mp-30597,Cu10Sn3,"Cu, Sn",2,0.03160750653846023,Hexagonal,176,P6_3/m,0.0,False,True
mp-638048,Mo9Se11,"Mo, Se",2,0.0651638840000004,Hexagonal,176,P6_3/m,0.0,False,True
mp-1249090,SiO2,"O, Si",2,0.017250400588235237,Hexagonal,176,P6_3/m,5.7956,True,False
mp-1205786,Y3Ru2,"Ru, Y",2,0.07173728599999851,Hexagonal,176,P6_3/m,0.0,True,True
mp-23263,LaBr3,"Br, La",2,0.0,Hexagonal,176,P6_3/m,2.9266,False,False
mp-23166,NpBr3,"Br, Np",2,0.0,Hexagonal,176,P6_3/m,0.0,False,True
mp-643067,Mg3Sn,"Mg, Sn",2,0.03617427374999904,Hexagonal,176,P6_3/m,0.0,False,True
mp-988,Si3N4,"N, Si",2,0.0,Hexagonal,176,P6_3/m,4.2503,False,False
mp-568170,TbCl3,"Cl, Tb",2,0.007308905000000365,Hexagonal,176,P6_3/m,4.1201,False,False
mp-1206285,Dy3Ru2,"Dy, Ru",2,0.0683477362499989,Hexagonal,176,P6_3/m,0.0,True,True
mp-23255,UBr3,"Br, U",2,0.0,Hexagonal,176,P6_3/m,0.0,False,True
mp-22896,LaCl3,"Cl, La",2,0.0,Hexagonal,176,P6_3/m,3.6454,False,False
mp-23211,PrCl3,"Cl, Pr",2,0.0,Hexagonal,176,P6_3/m,4.345400000000001,False,False
mp-31198,Er3Ru2,"Er, Ru",2,0.07225458000000184,Hexagonal,176,P6_3/m,0.0,False,True
mp-799,V3S4,"S, V",2,0.05696985785713515,Hexagonal,176,P6_3/m,0.0,False,True
mp-23278,NpCl3,"Cl, Np",2,0.0,Hexagonal,176,P6_3/m,0.0472999999999999,False,False
mp-510099,In3Au10,"Au, In",2,0.0,Hexagonal,176,P6_3/m,0.0,False,True
mp-23208,UCl3,"Cl, U",2,0.0,Hexagonal,176,P6_3/m,0.0,False,True
mp-23225,BBr3,"B, Br",2,0.0,Hexagonal,176,P6_3/m,3.8273,False,False
mp-23221,PrBr3,"Br, Pr",2,0.0,Hexagonal,176,P6_3/m,3.4295999999999998,False,False
mp-542854,Mg9Si5,"Mg, Si",2,0.04099524178571423,Hexagonal,176,P6_3/m,0.0,False,True
mp-2004,Cu10Sb3,"Cu, Sb",2,0.04992026423077078,Hexagonal,176,P6_3/m,0.0,False,True
mp-27971,AcCl3,"Ac, Cl",2,0.0,Hexagonal,176,P6_3/m,5.0865,False,False
mp-31257,Mo15S19,"Mo, S",2,0.08215510441176477,Hexagonal,176,P6_3/m,0.0,False,True
mp-9227,Ti3Se4,"Se, Ti",2,0.0,Hexagonal,176,P6_3/m,0.0,False,True
mp-1205565,Tm3Ru2,"Ru, Tm",2,0.07377136900000014,Hexagonal,176,P6_3/m,0.0,True,True
mp-27972,AcBr3,"Ac, Br",2,0.0,Hexagonal,176,P6_3/m,4.103299999999999,False,False
mp-680184,TaSe2,"Se, Ta",2,0.009263085000000615,Hexagonal,176,P6_3/m,0.0,False,True
mp-23265,GdCl3,"Cl, Gd",2,0.0,Hexagonal,176,P6_3/m,2.0054,False,False
mp-1205524,Ho3Ru2,"Ho, Ru",2,0.07015158574999969,Hexagonal,176,P6_3/m,0.0,True,True
mp-12627,Nb3S4,"Nb, S",2,0.0,Hexagonal,176,P6_3/m,0.0,False,True
mp-531574,Dy11S16,"Dy, S",2,0.03201084037037205,Orthorhombic,18,P2_12_12,0.0,True,True
mp-2503,Pd7Se4,"Pd, Se",2,0.0,Orthorhombic,18,P2_12_12,0.0,False,True
mp-556296,BaS3,"Ba, S",2,0.04356796437499888,Orthorhombic,18,P2_12_12,1.0473,False,False
mp-530036,Tb11S16,"S, Tb",2,0.027452408796296623,Orthorhombic,18,P2_12_12,0.0,True,True
mp-684744,Fe2N,"Fe, N",2,0.057325703611113,Orthorhombic,18,P2_12_12,0.0,True,True
mp-1227931,Eu16Sb11,"Eu, Sb",2,0.0,Orthorhombic,18,P2_12_12,0.0,True,True
mp-1224381,HfO2,"Hf, O",2,0.08525594083333488,Orthorhombic,18,P2_12_12,3.7545,True,False
mp-8939,Si2W,"Si, W",2,0.067845325555556,Hexagonal,180,P6_222,0.033799999999999386,False,False
mp-363,NbGe2,"Ge, Nb",2,0.0,Hexagonal,180,P6_222,0.0,False,True
mp-2478,NbSi2,"Nb, Si",2,0.00028580999999938683,Hexagonal,180,P6_222,0.0,False,True
mp-7558,TaGe2,"Ge, Ta",2,0.02543465666666833,Hexagonal,180,P6_222,0.0,False,True
mp-2137,Mg2Ni,"Mg, Ni",2,0.0,Hexagonal,180,P6_222,0.0,False,True
mp-6922,SiO2,"O, Si",2,0.009076502222223226,Hexagonal,180,P6_222,5.5311,False,False
mp-8938,Si2Mo,"Mo, Si",2,0.03144123777777885,Hexagonal,180,P6_222,0.09360000000000035,False,False
mp-10711,VSi2,"Si, V",2,0.0,Hexagonal,180,P6_222,0.0,False,True
mp-558118,BeF2,"Be, F",2,0.0008229350000013014,Hexagonal,180,P6_222,8.0867,False,False
mp-1084800,VGe2,"Ge, V",2,0.032563327878787796,Hexagonal,180,P6_222,0.0,False,True
mp-1222,CrSi2,"Cr, Si",2,0.01295319444444587,Hexagonal,180,P6_222,0.3638999999999992,False,False
mp-517,TaSi2,"Si, Ta",2,5.754444440952966e-06,Hexagonal,180,P6_222,0.0,False,True
mp-30047,Sn2Mo,"Mo, Sn",2,0.06053427666666522,Hexagonal,180,P6_222,0.0,False,True
mp-1079810,HfSn2,"Hf, Sn",2,0.0011263725555537007,Hexagonal,180,P6_222,0.0,False,True
mp-568607,Al5Mo,"Al, Mo",2,0.0,Hexagonal,182,P6_322,0.0,False,True
mp-559091,SiO2,"O, Si",2,0.011257474722222938,Hexagonal,182,P6_322,5.4496,False,False
mp-1017,Zr3O,"O, Zr",2,0.007423523749999106,Hexagonal,182,P6_322,0.0,False,True
mp-1804,Fe3N,"Fe, N",2,0.0,Hexagonal,182,P6_322,0.0,False,True
mp-13154,Fe3C,"C, Fe",2,0.05578030687500046,Hexagonal,182,P6_322,0.0,False,True
mp-1102877,PrPd5,"Pd, Pr",2,0.03986948499999965,Hexagonal,182,P6_322,0.0,False,True
mp-1190357,SmAl5,"Al, Sm",2,0.048397642083333636,Hexagonal,182,P6_322,0.0,False,True
mp-30337,Al5W,"Al, W",2,0.0,Hexagonal,182,P6_322,0.0,False,True
mp-2033,Ni3N,"N, Ni",2,0.014724856562498445,Hexagonal,182,P6_322,0.0,False,True
mp-1227946,BaGa2,"Ba, Ga",2,0.0010873233333321686,Hexagonal,183,P6mm,0.0,True,True
mp-680343,Ta21Te13,"Ta, Te",2,0.0,Hexagonal,183,P6mm,0.0,False,True
mp-12524,Al2W,"Al, W",2,0.09311756111111436,Hexagonal,181,P6_422,0.0,False,True
mp-12104,NbSi2,"Nb, Si",2,0.0,Hexagonal,181,P6_422,0.0,True,True
mp-11190,VSi2,"Si, V",2,3.1622222227412067e-06,Hexagonal,181,P6_422,0.0,False,True
mp-10851,SiO2,"O, Si",2,0.009073353333333145,Hexagonal,181,P6_422,5.5428,False,False
mp-11192,TaSi2,"Si, Ta",2,0.0,Hexagonal,181,P6_422,0.0,False,True
mp-11191,CrSi2,"Cr, Si",2,0.021367938888888105,Hexagonal,181,P6_422,0.3638999999999992,False,False
mp-2675163,WN2,"N, W",2,0.08612700222222358,Hexagonal,181,P6_422,0.8153,True,False
mp-1200317,Ni5Ge2,"Ge, Ni",2,0.015210133333335207,Hexagonal,185,P6_3cm,0.0,False,True
mp-1101228,V2F9,"F, V",2,0.06250591886363566,Hexagonal,185,P6_3cm,0.6412000000000002,True,False
mp-542429,Mg3Rh,"Mg, Rh",2,0.0,Hexagonal,185,P6_3cm,0.0,False,True
mp-334,LaF3,"F, La",2,0.000900947916667505,Hexagonal,185,P6_3cm,6.0452,False,False
mp-18712,Mg3Pd,"Mg, Pd",2,0.0,Hexagonal,185,P6_3cm,0.0,False,True
mp-1193977,Lu2S3,"Lu, S",2,0.03857061966666819,Hexagonal,185,P6_3cm,2.4062,False,False
mp-18707,Mg3Pt,"Mg, Pt",2,0.0,Hexagonal,185,P6_3cm,0.0,False,True
mp-7463,Cu3P,"Cu, P",2,0.025262583854166465,Hexagonal,185,P6_3cm,0.0,False,True
mp-31286,K3Bi,"Bi, K",2,0.0,Hexagonal,185,P6_3cm,0.02499999999999991,False,False
mp-690346,WO3,"O, W",2,0.01014024989583362,Hexagonal,185,P6_3cm,1.488,True,False
mp-17783,Mg3Au,"Au, Mg",2,0.0,Hexagonal,185,P6_3cm,0.0,False,True
mp-542220,Cs3As,"As, Cs",2,0.0,Hexagonal,185,P6_3cm,0.0,False,True
mp-16316,Co5As2,"As, Co",2,0.0688087416666665,Hexagonal,185,P6_3cm,0.0,False,True
mp-704981,Mn5Ge2,"Ge, Mn",2,0.09585784404761988,Hexagonal,185,P6_3cm,0.0,False,True
mp-1200923,Ni5P2,"Ni, P",2,0.01675999452380772,Hexagonal,185,P6_3cm,0.01130000000000031,False,False
mp-32662,WO3,"O, W",2,0.00977072531249945,Hexagonal,185,P6_3cm,1.4934,True,False
mp-655,Na3As,"As, Na",2,0.0,Hexagonal,185,P6_3cm,0.06400000000000006,False,False
mp-568419,Mg3Ir,"Ir, Mg",2,0.0,Hexagonal,185,P6_3cm,0.0,False,True
mp-1193566,Tm2S3,"S, Tm",2,0.05271652025000151,Hexagonal,185,P6_3cm,2.4261000000000004,False,False
mp-30370,Cd3Au,"Au, Cd",2,0.0,Hexagonal,185,P6_3cm,0.0,False,True
mp-569451,Sb2Pd5,"Pd, Sb",2,0.0011261276190452918,Hexagonal,185,P6_3cm,0.0,False,True
mp-1178678,YH3,"H, Y",2,0.0,Hexagonal,185,P6_3cm,0.0,False,True
mp-941,Ni5As2,"As, Ni",2,0.0,Hexagonal,185,P6_3cm,0.0,False,True
mp-18511,NdF3,"F, Nd",2,0.0014849800000007463,Hexagonal,185,P6_3cm,7.8031,False,False
mp-18299,UF3,"F, U",2,0.0,Hexagonal,185,P6_3cm,0.21550000000000047,False,False
mp-1214686,As2Pd5,"As, Pd",2,0.017196771428572788,Hexagonal,185,P6_3cm,0.0,True,True
mp-703459,H2O,"H, O",2,0.0010832130555558095,Hexagonal,185,P6_3cm,5.5287,False,False
mp-1105925,La7Pd3,"La, Pd",2,0.0,Hexagonal,186,P6_3mc,0.0,False,True
mp-569994,CdI2,"Cd, I",2,0.00013067611110928468,Hexagonal,186,P6_3mc,2.3621,False,False
mp-1196316,Cr7C3,"C, Cr",2,0.0,Hexagonal,186,P6_3mc,0.0,False,True
mp-1182329,Ce7Pt3,"Ce, Pt",2,0.014429143999997507,Hexagonal,186,P6_3mc,0.0,False,True
mp-984718,BAs,"As, B",2,0.08951741499999954,Hexagonal,186,P6_3mc,1.1428000000000003,True,False
mp-7140,SiC,"C, Si",2,0.004145862368421405,Hexagonal,186,P6_3mc,2.3028999999999993,False,False
mp-1070,CdSe,"Cd, Se",2,0.0,Hexagonal,186,P6_3mc,0.5724,False,False
mp-672,CdS,"Cd, S",2,0.0,Hexagonal,186,P6_3mc,1.125,False,False
mp-1188617,Sm7Pt3,"Pt, Sm",2,0.0,Hexagonal,186,P6_3mc,0.0,False,True
mp-2653,BN,"B, N",2,0.09470411999999939,Hexagonal,186,P6_3mc,5.1975999999999996,False,False
mp-1106180,Re7B3,"B, Re",2,0.008654345300001864,Hexagonal,186,P6_3mc,0.0,False,True
mp-18257,Fe7C3,"C, Fe",2,0.08039922424999979,Hexagonal,186,P6_3mc,0.0,False,True
mp-568263,GaSe,"Ga, Se",2,0.0,Hexagonal,186,P6_3mc,1.2121,False,False
mp-999539,MnO,"Mn, O",2,0.08382060000000102,Hexagonal,186,P6_3mc,0.0,False,True
mp-1106092,Sr7Ag3,"Ag, Sr",2,0.013513263899998407,Hexagonal,186,P6_3mc,0.0,False,True
mp-999540,MnSe,"Mn, Se",2,0.0,Hexagonal,186,P6_3mc,0.0,False,True
mp-1012435,PbS,"Pb, S",2,0.056455185000000796,Hexagonal,186,P6_3mc,0.5949,True,False
mp-31164,Ce7Ru3,"Ce, Ru",2,0.0011276728333333708,Hexagonal,186,P6_3mc,0.0,False,True
mp-1189501,La7Pt3,"La, Pt",2,0.0,Hexagonal,186,P6_3mc,0.0,False,True
mp-1007652,InAs,"As, In",2,0.0076950650000000564,Hexagonal,186,P6_3mc,0.0,True,True
mp-1105786,Dy7Rh3,"Dy, Rh",2,0.0,Hexagonal,186,P6_3mc,0.0,False,True
mp-1183441,BeTe,"Be, Te",2,0.0058195474999998,Hexagonal,186,P6_3mc,2.2711999999999994,True,False
mp-30565,Th7Co3,"Co, Th",2,0.0,Hexagonal,186,P6_3mc,0.0,False,True
mp-755508,CoO2,"Co, O",2,0.0678270250000006,Hexagonal,186,P6_3mc,0.0,True,True
mp-1185319,LiCl,"Cl, Li",2,0.003642515000000124,Hexagonal,186,P6_3mc,5.7373,True,False
mp-8882,GaP,"Ga, P",2,0.008458759999999899,Hexagonal,186,P6_3mc,1.3002000000000002,True,False
mp-560588,ZnS,"S, Zn",2,0.003044368214284887,Hexagonal,186,P6_3mc,2.0701,False,False
mp-1106065,B3Rh7,"B, Rh",2,0.012482750499998474,Hexagonal,186,P6_3mc,0.0,False,True
mp-561118,ZnS,"S, Zn",2,0.0005387500892855002,Hexagonal,186,P6_3mc,2.0338,False,False
mp-1008559,BP,"B, P",2,0.014076364999999313,Hexagonal,186,P6_3mc,1.0624000000000002,False,False
mp-1106086,Pr7Rh3,"Pr, Rh",2,0.0,Hexagonal,186,P6_3mc,0.0,False,True
mp-1184548,HPd,"H, Pd",2,0.0,Hexagonal,186,P6_3mc,0.0,True,True
mp-1106174,Tb7Rh3,"Rh, Tb",2,0.0,Hexagonal,186,P6_3mc,0.0,False,True
mp-569346,CuI,"Cu, I",2,0.008882400000000956,Hexagonal,186,P6_3mc,1.2119999999999997,False,False
mp-574272,Ca5Pb3,"Ca, Pb",2,0.038840532291666285,Hexagonal,186,P6_3mc,0.0,True,True
mp-569819,Th7Os3,"Os, Th",2,0.0,Hexagonal,186,P6_3mc,0.0,False,True
mp-999517,MnN,"Mn, N",2,0.08945997000000006,Hexagonal,186,P6_3mc,0.0,True,True
mp-2133,ZnO,"O, Zn",2,0.0,Hexagonal,186,P6_3mc,0.7227,False,False
mp-1185301,LiF,"F, Li",2,0.024405554999999524,Hexagonal,186,P6_3mc,7.4776,True,False
mp-1106336,Ho7Rh3,"Ho, Rh",2,0.0,Hexagonal,186,P6_3mc,0.0,False,True
mp-567542,PbI2,"I, Pb",2,0.0007863558333318643,Hexagonal,186,P6_3mc,2.3829000000000002,False,False
mp-1007661,InSb,"In, Sb",2,0.005781490000000389,Hexagonal,186,P6_3mc,0.0,False,True
mp-966800,InP,"In, P",2,0.00393371500000228,Hexagonal,186,P6_3mc,0.5133999999999999,True,False
mp-2811,MoN,"Mo, N",2,0.0,Hexagonal,186,P6_3mc,0.0,False,True
mp-561196,ZnS,"S, Zn",2,0.00023491928571317544,Hexagonal,186,P6_3mc,2.0271,False,False
mp-2562,MnS,"Mn, S",2,0.08157444750000131,Hexagonal,186,P6_3mc,0.0,False,True
mp-1107,Th7Rh3,"Rh, Th",2,0.0,Hexagonal,186,P6_3mc,0.0,False,True
mp-1105619,Nd7Ni3,"Nd, Ni",2,0.0016086035000011378,Hexagonal,186,P6_3mc,0.0,False,True
mp-8881,AlAs,"Al, As",2,0.007405090000000669,Hexagonal,186,P6_3mc,1.6869999999999998,True,False
mp-1105892,Sm7Pd3,"Pd, Sm",2,0.0005094560000031834,Hexagonal,186,P6_3mc,0.0,False,True
mp-1184046,CuCl,"Cl, Cu",2,0.01892719499999984,Hexagonal,186,P6_3mc,0.5736000000000003,True,False
mp-1106268,Pr7Pd3,"Pd, Pr",2,0.0,Hexagonal,186,P6_3mc,0.0,False,True
mp-573855,La7Ni3,"La, Ni",2,0.0,Hexagonal,186,P6_3mc,0.0,False,True
mp-28248,CdI2,"Cd, I",2,0.0001492961111102531,Hexagonal,186,P6_3mc,2.3655999999999997,False,False
mp-560725,ZnS,"S, Zn",2,0.00017364540178554932,Hexagonal,186,P6_3mc,2.0215,False,False
mp-1189759,Pr7Ir3,"Ir, Pr",2,0.008030147899994233,Hexagonal,186,P6_3mc,0.0,False,True
mp-8883,GaAs,"As, Ga",2,0.005464424999999551,Hexagonal,186,P6_3mc,0.22380000000000022,True,False
mp-580941,AgI,"Ag, I",2,0.0,Hexagonal,186,P6_3mc,1.3759000000000001,False,False
mp-975657,PrH,"H, Pr",2,0.0820600162500007,Hexagonal,186,P6_3mc,0.0,True,True
mp-567551,SiC,"C, Si",2,5.227018092135438e-05,Hexagonal,186,P6_3mc,1.970600000000001,False,False
mp-1188890,Y7Pt3,"Pt, Y",2,0.017898522250000326,Hexagonal,186,P6_3mc,0.0,False,True