material_id,formula,elements,num_elements,energy_above_hull,crystal_system,spacegroup_number,spacegroup_symbol,band_gap,theoretical,is_metal
mp-1043,HfV2,"Hf, V",2,0.06383660500000232,Cubic,227,Fd-3m,0.0,False,True
mp-11644,Li2Ca,"Ca, Li",2,0.004267985833332766,Cubic,227,Fd-3m,0.0,False,True
mp-985556,CdNi,"Cd, Ni",2,0.006270499166667776,Cubic,227,Fd-3m,0.0,False,True
mp-2708,LaNi2,"La, Ni",2,0.023639428888890812,Cubic,227,Fd-3m,0.0,False,True
mp-1127,SmPt2,"Pt, Sm",2,0.0,Cubic,227,Fd-3m,0.0,False,True
mp-2579,HoPt2,"Ho, Pt",2,0.022801642333327266,Cubic,227,Fd-3m,0.0,False,True
mp-1191706,Zr2Ir,"Ir, Zr",2,0.048450425555557786,Cubic,227,Fd-3m,0.0,False,True
mp-943,Co3S4,"Co, S",2,0.0,Cubic,227,Fd-3m,0.0,False,True
mp-30708,HfNi2,"Hf, Ni",2,0.04818357683333474,Cubic,227,Fd-3m,0.0,False,True
mp-623827,EuRh2,"Eu, Rh",2,0.0,Cubic,227,Fd-3m,0.0,False,True
mp-2385,TaCr2,"Cr, Ta",2,0.05987628922222399,Cubic,227,Fd-3m,0.0,False,True
mp-928,HoIr2,"Ho, Ir",2,0.0,Cubic,227,Fd-3m,0.0,False,True
mp-603,Be2Ag,"Ag, Be",2,0.02972060444444491,Cubic,227,Fd-3m,0.0,False,True
mp-1067,LiAl,"Al, Li",2,0.0,Cubic,227,Fd-3m,0.0,False,True
mp-1095397,SnS2,"S, Sn",2,0.0032224066666692863,Cubic,227,Fd-3m,1.2026,False,False
mp-951,CeRh2,"Ce, Rh",2,0.0,Cubic,227,Fd-3m,0.0,False,True
mp-1192216,Ti2Fe,"Fe, Ti",2,0.06568317513888644,Cubic,227,Fd-3m,0.0,False,True
mp-21416,PuAl2,"Al, Pu",2,0.0,Cubic,227,Fd-3m,0.0,False,True
mp-756,TbAl2,"Al, Tb",2,0.0,Cubic,227,Fd-3m,0.0,False,True
mp-445,NdCo2,"Co, Nd",2,0.07662491047619113,Cubic,227,Fd-3m,0.0,False,True
mp-1247744,BaNa,"Ba, Na",2,0.0,Cubic,227,Fd-3m,0.08789999999999987,True,False
mp-1358,DyIr2,"Dy, Ir",2,0.0,Cubic,227,Fd-3m,0.0,False,True
mp-1897,PuRh2,"Pu, Rh",2,0.0,Cubic,227,Fd-3m,0.0,False,True
mp-2720,NdPt2,"Nd, Pt",2,0.0,Cubic,227,Fd-3m,0.0,False,True
mp-842,CaPt2,"Ca, Pt",2,0.0,Cubic,227,Fd-3m,0.0,False,True
mp-537,ErCo2,"Co, Er",2,0.0,Cubic,227,Fd-3m,0.0,False,True
mp-1808,Ti2Ni,"Ni, Ti",2,0.0,Cubic,227,Fd-3m,0.0,False,True
mp-819,HfCr2,"Cr, Hf",2,0.08468114333333077,Cubic,227,Fd-3m,0.0,False,True
mp-1191460,HfMn,"Hf, Mn",2,0.009430611875000494,Cubic,227,Fd-3m,0.0,False,True
mp-2265,TbCo2,"Co, Tb",2,0.0,Cubic,227,Fd-3m,0.0,False,True
mp-995,EuIr2,"Eu, Ir",2,0.0,Cubic,227,Fd-3m,0.0,False,True
mp-253,ScCo2,"Co, Sc",2,0.0,Cubic,227,Fd-3m,0.0,False,True
mp-561090,SiO2,"O, Si",2,0.015246379607843252,Cubic,227,Fd-3m,5.5448,False,False
mp-1728,LuRh2,"Lu, Rh",2,0.0,Cubic,227,Fd-3m,0.0,False,True
mp-863,PuCo2,"Co, Pu",2,0.0,Cubic,227,Fd-3m,0.0,False,True
mp-1190654,Hf2Pd,"Hf, Pd",2,0.08495123416666672,Cubic,227,Fd-3m,0.0,False,True
mp-1558,SrPd2,"Pd, Sr",2,0.0,Cubic,227,Fd-3m,0.0,False,True
mp-2628,DyCo2,"Co, Dy",2,0.0,Cubic,227,Fd-3m,0.0,False,True
mp-583800,Zr2Cu,"Cu, Zr",2,0.06509884291666612,Cubic,227,Fd-3m,0.0,False,True
mp-589,TbFe2,"Fe, Tb",2,0.0,Cubic,227,Fd-3m,0.0,False,True
mp-510430,Li13In3,"In, Li",2,0.0,Cubic,227,Fd-3m,0.0,False,True
mp-543019,GdNi2,"Gd, Ni",2,0.0,Cubic,227,Fd-3m,0.0,False,True
mp-813,ScAl2,"Al, Sc",2,0.0,Cubic,227,Fd-3m,0.0,False,True
mp-1052,NaAu2,"Au, Na",2,0.0,Cubic,227,Fd-3m,0.0,False,True
mp-30865,TmRh2,"Rh, Tm",2,0.0,Cubic,227,Fd-3m,0.0,False,True
mp-754381,Zr3N4,"N, Zr",2,0.0425602746428595,Cubic,227,Fd-3m,0.5628999999999995,True,False
mp-1187676,TmMg2,"Mg, Tm",2,0.0,Cubic,227,Fd-3m,0.0,True,True
mp-1191331,Ti2Co,"Co, Ti",2,0.06680302319444387,Cubic,227,Fd-3m,0.0,False,True
mp-840,SmRh2,"Rh, Sm",2,0.0,Cubic,227,Fd-3m,0.0,False,True
mp-2130,LuNi2,"Lu, Ni",2,0.0,Cubic,227,Fd-3m,0.0,False,True
mp-1192264,Ti2Cu,"Cu, Ti",2,0.09259994583333508,Cubic,227,Fd-3m,0.0,False,True
mp-1654,CeNi2,"Ce, Ni",2,0.0,Cubic,227,Fd-3m,0.0,False,True
mp-1729,SmFe2,"Fe, Sm",2,0.022785003333332554,Cubic,227,Fd-3m,0.0,False,True
mp-2463,LuFe2,"Fe, Lu",2,0.0,Cubic,227,Fd-3m,0.0,False,True
mp-339,UMn2,"Mn, U",2,0.01617380499999399,Cubic,227,Fd-3m,0.0,False,True
mp-30888,ZrZn22,"Zn, Zr",2,0.011539984782610091,Cubic,227,Fd-3m,0.0,False,True
mp-21049,GdMg2,"Gd, Mg",2,0.0,Cubic,227,Fd-3m,0.0,False,True
mp-1183802,DyMg2,"Dy, Mg",2,0.013089190000000084,Cubic,227,Fd-3m,0.0,True,True
mp-1343,NdNi2,"Nd, Ni",2,0.0027456041666642506,Cubic,227,Fd-3m,0.0,False,True
mp-1437,LiCd,"Cd, Li",2,0.0,Cubic,227,Fd-3m,0.0,False,True
mp-1444811,NiS2,"Ni, S",2,0.04376447166666697,Cubic,227,Fd-3m,0.0,True,True
mp-1187860,YMg2,"Mg, Y",2,0.008698931666667242,Cubic,227,Fd-3m,0.0,True,True
mp-2250,ZrNi2,"Ni, Zr",2,0.04556328583333169,Cubic,227,Fd-3m,0.0,False,True
mp-542488,MgCo,"Co, Mg",2,0.02819130458333241,Cubic,227,Fd-3m,0.0,False,True
mp-567276,TaV2,"Ta, V",2,0.0,Cubic,227,Fd-3m,0.0,False,True
mp-1190979,Sc2Ir,"Ir, Sc",2,0.034591713511905375,Cubic,227,Fd-3m,0.0,False,True
mp-1112,CeCo2,"Ce, Co",2,0.0,Cubic,227,Fd-3m,0.0,False,True
mp-21419,CeMg2,"Ce, Mg",2,0.04332644555555554,Cubic,227,Fd-3m,0.0,False,True
mp-1080293,CeSe2,"Ce, Se",2,0.07328287083333151,Cubic,227,Fd-3m,1.0032999999999999,True,False
mp-1401,ZrZn2,"Zn, Zr",2,0.0,Cubic,227,Fd-3m,0.0,False,True
mp-1854,EuPd2,"Eu, Pd",2,0.0,Cubic,227,Fd-3m,0.0,False,True
mp-1909,LaMg2,"La, Mg",2,0.002472620833335437,Cubic,227,Fd-3m,0.0,False,True
mp-1402,SmNi2,"Ni, Sm",2,0.0,Cubic,227,Fd-3m,0.0,False,True
mp-20089,GdFe2,"Fe, Gd",2,0.047316154000000665,Cubic,227,Fd-3m,0.0,False,True
mp-1190862,Sc2Pd,"Pd, Sc",2,0.0,Cubic,227,Fd-3m,0.0,False,True
mp-2674,YPt2,"Pt, Y",2,0.0,Cubic,227,Fd-3m,0.0,False,True
mp-571084,MnBr2,"Br, Mn",2,0.0019265433333330861,Cubic,227,Fd-3m,1.5333999999999999,False,False
mp-1570,YFe2,"Fe, Y",2,0.0,Cubic,227,Fd-3m,0.0,False,True
mp-1185705,MgNi2,"Mg, Ni",2,0.004170157500000826,Cubic,227,Fd-3m,0.0,True,True
mp-1757,DyFe2,"Dy, Fe",2,0.0,Cubic,227,Fd-3m,0.0,False,True
mp-30440,Be22Mo,"Be, Mo",2,0.019973116956521153,Cubic,227,Fd-3m,0.0,False,True
mp-30743,TmIr2,"Ir, Tm",2,0.0,Cubic,227,Fd-3m,0.0,False,True
mp-25275,MnO2,"Mn, O",2,0.07605056388888798,Cubic,227,Fd-3m,1.5739,False,False
mp-1687,BaPd2,"Ba, Pd",2,0.0,Cubic,227,Fd-3m,0.0,False,True
mp-638586,Te3Pd13,"Pd, Te",2,0.0,Cubic,227,Fd-3m,0.0,False,True
mp-258,ZrV2,"V, Zr",2,0.08338467000000094,Cubic,227,Fd-3m,0.0,False,True
mp-946,PrIr2,"Ir, Pr",2,0.0,Cubic,227,Fd-3m,0.0,False,True
mp-1077429,NbNi2,"Nb, Ni",2,0.08764159577777964,Cubic,227,Fd-3m,0.0,True,True
mp-632,TmCo2,"Co, Tm",2,0.0,Cubic,227,Fd-3m,0.0,False,True
mp-1180295,Na3Si17,"Na, Si",2,0.022248642687498155,Cubic,227,Fd-3m,0.0,True,True
mp-18748,Co3O4,"Co, O",2,0.010479931428569955,Cubic,227,Fd-3m,0.0,False,True
mp-2098,CeOs2,"Ce, Os",2,0.015387223333334532,Cubic,227,Fd-3m,0.0,False,True
mp-1192157,Hf2Mn,"Hf, Mn",2,0.0,Cubic,227,Fd-3m,0.0,False,True
mp-2049,ZrMo2,"Mo, Zr",2,0.0,Cubic,227,Fd-3m,0.0,False,True
mp-333,HfFe2,"Fe, Hf",2,0.0,Cubic,227,Fd-3m,0.0,False,True
mp-1196998,K3Ge17,"Ge, K",2,0.0,Cubic,227,Fd-3m,0.058699999999999974,False,False
mp-1183430,CaMg2,"Ca, Mg",2,0.0017381949999997204,Cubic,227,Fd-3m,0.0,True,True
mp-1189,PrAl2,"Al, Pr",2,0.0,Cubic,227,Fd-3m,0.0,False,True
mp-23253,RbBi2,"Bi, Rb",2,0.0,Cubic,227,Fd-3m,0.0,False,True
mp-571262,CaRh2,"Ca, Rh",2,0.0,Cubic,227,Fd-3m,0.0,False,True
mp-1184860,HoMg2,"Ho, Mg",2,0.009147035000000248,Cubic,227,Fd-3m,0.0,True,True
mp-2088,CeAl2,"Al, Ce",2,0.0,Cubic,227,Fd-3m,0.0,False,True
mp-2754,Hf2Fe,"Fe, Hf",2,0.0,Cubic,227,Fd-3m,0.0,False,True
mp-1256499,SiO2,"O, Si",2,0.05650137916666509,Cubic,230,Ia-3d,5.931,True,False
mp-16515,Al4Ni3,"Al, Ni",2,0.0,Cubic,230,Ia-3d,0.0,False,True
mp-648774,Zr2Cl5,"Cl, Zr",2,0.05957020244047584,Cubic,230,Ia-3d,0.0,False,True
mp-30655,Ga4Ni3,"Ga, Ni",2,0.009664909328231275,Cubic,230,Ia-3d,0.0,False,True
mp-558891,SiO2,"O, Si",2,0.01316330638888985,Cubic,230,Ia-3d,5.6471,True,False
mp-680077,Ta2Br5,"Br, Ta",2,0.0,Cubic,230,Ia-3d,0.0,False,True
mp-600028,SiO2,"O, Si",2,0.022316529861111434,Cubic,230,Ia-3d,5.5863,True,False
mp-1199827,Ba8Ge43,"Ba, Ge",2,0.03219437318627438,Cubic,230,Ia-3d,0.022999999999999687,False,False
mp-23274,Ta2Cl5,"Cl, Ta",2,0.0,Cubic,230,Ia-3d,0.0,False,True
mp-30467,Bi4Rh,"Bi, Rh",2,0.0,Cubic,230,Ia-3d,0.0,False,True
mp-715035,VO2,"O, V",2,0.09988106395831764,Orthorhombic,28,Pma2,0.7988,True,False
mp-20123,Te2Au,"Au, Te",2,0.0,Orthorhombic,28,Pma2,0.0,False,True
mp-1205384,LaTe2,"La, Te",2,0.0010886254166564413,Orthorhombic,28,Pma2,0.0,False,True
mp-559545,SeO2,"O, Se",2,0.009079646666666719,Orthorhombic,26,Pmc2_1,3.4417,False,False
mp-1215880,Zr8As5,"As, Zr",2,0.09155195335164912,Orthorhombic,26,Pmc2_1,0.0,True,True
mp-1279995,Mn3O4,"Mn, O",2,0.0550263278571439,Orthorhombic,26,Pmc2_1,0.8311999999999999,True,False
mp-1181813,Fe3O4,"Fe, O",2,0.04845093214285967,Orthorhombic,26,Pmc2_1,0.9056000000000002,True,False
mp-1096430,CeSe2,"Ce, Se",2,0.027712251666665466,Orthorhombic,26,Pmc2_1,0.0,True,True
mp-1220618,Nb8P5,"Nb, P",2,0.09488690014423007,Orthorhombic,26,Pmc2_1,0.0,True,True
mp-560882,SeO2,"O, Se",2,0.007679208749998168,Orthorhombic,26,Pmc2_1,3.4194,False,False
mp-1343531,BiO2,"Bi, O",2,0.07909702749999958,Orthorhombic,26,Pmc2_1,0.5188999999999999,True,False
mp-27411,TlP5,"P, Tl",2,0.0,Orthorhombic,26,Pmc2_1,1.1848999999999998,False,False
mp-1183367,BaEu3,"Ba, Eu",2,0.07101797874999605,Cubic,225,Fm-3m,0.0,True,True
mp-2602,NdAs,"As, Nd",2,0.0,Cubic,225,Fm-3m,0.0,False,True
mp-510404,GdSe,"Gd, Se",2,0.0,Cubic,225,Fm-3m,0.0,False,True
mp-1187695,V3Cr,"Cr, V",2,0.04518707499999941,Cubic,225,Fm-3m,0.0,True,True
mp-866134,VFe3,"Fe, V",2,0.0,Cubic,225,Fm-3m,0.0,True,True
mp-639154,Co23B6,"B, Co",2,0.03366596258620724,Cubic,225,Fm-3m,0.0,False,True
mp-23231,AgBr,"Ag, Br",2,0.0,Cubic,225,Fm-3m,0.7303999999999999,False,False
mp-10378,Cs3Sb,"Cs, Sb",2,0.0,Cubic,225,Fm-3m,0.6126,False,False
mp-1187206,Ta3W,"Ta, W",2,0.0,Cubic,225,Fm-3m,0.0,True,True
mp-20962,Ni23B6,"B, Ni",2,0.025791950344828507,Cubic,225,Fm-3m,0.0,True,True
mp-1018067,CrFe3,"Cr, Fe",2,0.06367412500000036,Cubic,225,Fm-3m,0.0,True,True
mp-568512,Ba6Mg23,"Ba, Mg",2,0.0,Cubic,225,Fm-3m,0.0,False,True
mp-1187539,Tl3Ga,"Ga, Tl",2,0.09724636562500422,Cubic,225,Fm-3m,0.0,True,True
mp-972965,GdF3,"F, Gd",2,0.0,Cubic,225,Fm-3m,2.8621999999999996,True,False
mp-1104905,TmB12,"B, Tm",2,0.0,Cubic,225,Fm-3m,0.0,False,True
mp-1187155,SrCa3,"Ca, Sr",2,0.03869834999999888,Cubic,225,Fm-3m,0.0,True,True
mp-973053,ScH3,"H, Sc",2,0.07506386281249977,Cubic,225,Fm-3m,0.0,True,True
mp-1240,HoS,"Ho, S",2,0.0,Cubic,225,Fm-3m,0.0,False,True
mp-568516,K3Bi,"Bi, K",2,0.014359646250001301,Cubic,225,Fm-3m,0.12860000000000005,False,False
mp-2350,LaS,"La, S",2,0.0,Cubic,225,Fm-3m,0.0,False,True
mp-8860,Na3As,"As, Na",2,0.042532438333333644,Cubic,225,Fm-3m,0.11670000000000003,False,False
mp-1009733,Ca2Si,"Ca, Si",2,0.0,Cubic,225,Fm-3m,0.5509000000000004,True,False
mp-1138,LiF,"F, Li",2,0.0,Cubic,225,Fm-3m,8.7161,False,False
mp-1183987,GaHg3,"Ga, Hg",2,0.06922385937500053,Cubic,225,Fm-3m,0.0,True,True
mp-867342,Li3Ge,"Ge, Li",2,0.008542325000000073,Cubic,225,Fm-3m,0.0,True,True
mp-1646,Li3Hg,"Hg, Li",2,0.0012975900000000706,Cubic,225,Fm-3m,0.0,False,True
mp-1410,DyN,"Dy, N",2,0.0,Cubic,225,Fm-3m,0.04309999999999947,False,False
mp-23295,RbCl,"Cl, Rb",2,0.0,Cubic,225,Fm-3m,4.8388,False,False
mp-24658,SmH2,"H, Sm",2,0.0,Cubic,225,Fm-3m,0.0,False,True
mp-672232,AlNi3,"Al, Ni",2,0.07205002999999977,Cubic,225,Fm-3m,0.0,True,True
mp-237,TmTe,"Te, Tm",2,0.03829118499999851,Cubic,225,Fm-3m,0.0,False,True
mp-2548,PuAs,"As, Pu",2,0.0,Cubic,225,Fm-3m,0.0,False,True
mp-22912,NpBi,"Bi, Np",2,0.06405728562499924,Cubic,225,Fm-3m,0.0,False,True
mp-510374,GdAs,"As, Gd",2,0.0,Cubic,225,Fm-3m,0.0,False,True
mp-865077,NaCd3,"Cd, Na",2,0.0015907350000006204,Cubic,225,Fm-3m,0.0,True,True
mp-973143,ScZn3,"Sc, Zn",2,0.01924412249999996,Cubic,225,Fm-3m,0.0,True,True
mp-672661,GaFe3,"Fe, Ga",2,0.03586805500000079,Cubic,225,Fm-3m,0.0,False,True
mp-1029,BaF2,"Ba, F",2,0.0,Cubic,225,Fm-3m,6.6029,False,False
mp-1185235,Li3Rh,"Li, Rh",2,0.07196978666666709,Cubic,225,Fm-3m,0.04939999999999989,True,False
mp-12087,Cu2S,"Cu, S",2,0.09426421770833393,Cubic,225,Fm-3m,0.0,False,True
mp-1186792,PuHg3,"Hg, Pu",2,0.0,Cubic,225,Fm-3m,0.0,True,True
mp-1185541,CsNa3,"Cs, Na",2,0.08245365060344767,Cubic,225,Fm-3m,0.0,True,True
mp-510401,GdP,"Gd, P",2,0.0,Cubic,225,Fm-3m,0.0,False,True
mp-2795,ZrC,"C, Zr",2,0.0,Cubic,225,Fm-3m,0.0,False,True
mp-1192934,Tb6Cu23,"Cu, Tb",2,0.02619820448275867,Cubic,225,Fm-3m,0.0,False,True
mp-2637,YSe,"Se, Y",2,0.0,Cubic,225,Fm-3m,0.0,False,True
mp-2306,LaMg3,"La, Mg",2,0.0,Cubic,225,Fm-3m,0.0,False,True
mp-865875,Li3Ag,"Ag, Li",2,0.0,Cubic,225,Fm-3m,0.0,True,True
mp-22873,SmBi,"Bi, Sm",2,0.0,Cubic,225,Fm-3m,0.0,False,True
mp-1186418,PaTi3,"Pa, Ti",2,0.05569938500000049,Cubic,225,Fm-3m,0.0,True,True
mp-910,NbC,"C, Nb",2,0.04103211687499986,Cubic,225,Fm-3m,0.0,False,True
mp-1093,ThGe,"Ge, Th",2,0.0,Cubic,225,Fm-3m,0.0,False,True
mp-23285,CeBi,"Bi, Ce",2,0.0,Cubic,225,Fm-3m,0.0,False,True
mp-1975,TmN,"N, Tm",2,0.0,Cubic,225,Fm-3m,0.1528999999999998,False,False
mp-2530518,TePd3,"Pd, Te",2,0.05898555899999991,Cubic,225,Fm-3m,0.0,True,True
mp-2384,LaP,"La, P",2,0.0,Cubic,225,Fm-3m,0.0,False,True
mp-2159,DyTe,"Dy, Te",2,0.0,Cubic,225,Fm-3m,0.0,False,True
mp-999550,Mn3Ga,"Ga, Mn",2,0.08622319603448148,Cubic,225,Fm-3m,0.0,True,True
mp-22905,LiCl,"Cl, Li",2,0.0,Cubic,225,Fm-3m,6.25,False,False
mp-861605,AcH3,"Ac, H",2,0.0,Cubic,225,Fm-3m,0.6406999999999998,True,False
mp-315,PbF2,"F, Pb",2,0.0,Cubic,225,Fm-3m,4.3938,False,False
mp-1415,CaSe,"Ca, Se",2,0.0,Cubic,225,Fm-3m,2.0728000000000004,False,False
mp-24723,TaH2,"H, Ta",2,0.0,Cubic,225,Fm-3m,0.0,False,True
mp-973824,LiHg3,"Hg, Li",2,0.025750848750000443,Cubic,225,Fm-3m,0.0,True,True
mp-940,GdN,"Gd, N",2,0.0,Cubic,225,Fm-3m,0.0,False,True
mp-999123,TbH3,"H, Tb",2,0.07787709416666644,Cubic,225,Fm-3m,0.0,False,True
mp-862878,PmAg3,"Ag, Pm",2,0.007833941250002141,Cubic,225,Fm-3m,0.0,True,True
mp-1183350,Ba3Eu,"Ba, Eu",2,0.03467387124999988,Cubic,225,Fm-3m,0.0,True,True
mp-933,YAs,"As, Y",2,0.0,Cubic,225,Fm-3m,0.0,False,True
mp-1500,BaS,"Ba, S",2,0.0,Cubic,225,Fm-3m,2.1488,False,False
mp-977189,Na3Bi,"Bi, Na",2,0.01568028999999882,Cubic,225,Fm-3m,0.0,True,True
mp-2104,UAs,"As, U",2,0.0,Cubic,225,Fm-3m,0.0,False,True
mp-1302,PrO2,"O, Pr",2,0.08669417500000165,Cubic,225,Fm-3m,0.0,False,True
mp-974309,In3Ga,"Ga, In",2,0.07382693749999802,Cubic,225,Fm-3m,0.0,True,True
mp-834,ThN,"N, Th",2,0.0,Cubic,225,Fm-3m,0.0,False,True
mp-22898,KI,"I, K",2,0.0,Cubic,225,Fm-3m,3.8513,False,False
mp-976113,LaAu3,"Au, La",2,0.03713212168478375,Cubic,225,Fm-3m,0.0,True,True
mp-2117,TbN,"N, Tb",2,0.0,Cubic,225,Fm-3m,0.013399999999999856,False,False
mp-614603,CsI,"Cs, I",2,0.0,Cubic,225,Fm-3m,3.8556,False,False
mp-1193176,Lu6Mn23,"Lu, Mn",2,0.0,Cubic,225,Fm-3m,0.0,False,True
mp-865899,Ti3Os,"Os, Ti",2,0.0,Cubic,225,Fm-3m,0.0,True,True
mp-1406,MnTe,"Mn, Te",2,0.06123146999999918,Cubic,225,Fm-3m,0.0,False,True
mp-11327,Rb2Se,"Rb, Se",2,0.0,Cubic,225,Fm-3m,1.7968,False,False
mp-1192498,Tm6Mn23,"Mn, Tm",2,0.0,Cubic,225,Fm-3m,0.0,False,True
mp-2822,TmSe,"Se, Tm",2,0.0,Cubic,225,Fm-3m,0.0,False,True
mp-985806,Al2Cu,"Al, Cu",2,0.0,Cubic,225,Fm-3m,0.0,True,True
mp-1229090,Ag2S,"Ag, S",2,0.07692717166666796,Cubic,225,Fm-3m,0.0,True,True
mp-475,SnP,"P, Sn",2,0.040785102499999226,Cubic,225,Fm-3m,0.0,False,True
mp-2599,NdN,"N, Nd",2,0.0,Cubic,225,Fm-3m,0.0,False,True
mp-1186977,ScAu3,"Au, Sc",2,0.07420115249999526,Cubic,225,Fm-3m,0.0,True,True
mp-2612,GeTe,"Ge, Te",2,0.020308700000001068,Cubic,225,Fm-3m,0.4068000000000005,False,False
mp-1025415,CePd7,"Ce, Pd",2,0.0,Cubic,225,Fm-3m,0.0,True,True
mp-441,Rb2Te,"Rb, Te",2,0.0,Cubic,225,Fm-3m,1.8766,False,False
mp-2132,CrN,"Cr, N",2,0.0,Cubic,225,Fm-3m,0.0,False,True
mp-1565,ZrO2,"O, Zr",2,0.05567256666666509,Cubic,225,Fm-3m,3.125,False,False
mp-2074,Li3Sb,"Li, Sb",2,0.007977497500000652,Cubic,225,Fm-3m,0.7073999999999998,False,False
mp-2065,MnS,"Mn, S",2,0.0,Cubic,225,Fm-3m,0.0,False,True
mp-601,PrP,"P, Pr",2,0.0,Cubic,225,Fm-3m,0.0,False,True
mp-864613,NpAu3,"Au, Np",2,0.0,Cubic,225,Fm-3m,0.0,True,True
mp-1184254,GaPd3,"Ga, Pd",2,0.0634394890000003,Cubic,225,Fm-3m,0.0,True,True
mp-30765,LiPt7,"Li, Pt",2,0.0,Cubic,225,Fm-3m,0.0,False,True
mp-2017,LuAs,"As, Lu",2,0.0,Cubic,225,Fm-3m,0.0,False,True
mp-7592,AgF,"Ag, F",2,0.0,Cubic,225,Fm-3m,0.0,False,True
mp-867857,SmH3,"H, Sm",2,0.06053188000000098,Cubic,225,Fm-3m,0.0,True,True
mp-1183491,Ca3Nd,"Ca, Nd",2,0.088627265625,Cubic,225,Fm-3m,0.0,True,True
mp-648,Na2S,"Na, S",2,0.0,Cubic,225,Fm-3m,2.4399,False,False
mp-24147,AcH2,"Ac, H",2,0.0,Cubic,225,Fm-3m,0.0,False,True
mp-1022,K2S,"K, S",2,0.0,Cubic,225,Fm-3m,2.3201,False,False
mp-519,USb,"Sb, U",2,0.07130109125000672,Cubic,225,Fm-3m,0.0,False,True
mp-2050,HoSb,"Ho, Sb",2,0.0,Cubic,225,Fm-3m,0.0,False,True
mp-20300,EuP,"Eu, P",2,0.0,Cubic,225,Fm-3m,0.0,False,True
mp-627,NpSe,"Np, Se",2,0.0,Cubic,225,Fm-3m,0.0,False,True
mp-1186142,NaHg3,"Hg, Na",2,0.01543039375000177,Cubic,225,Fm-3m,0.0,True,True
mp-7381,TbMg3,"Mg, Tb",2,0.0,Cubic,225,Fm-3m,0.0,False,True
mp-1394,Rb2O,"O, Rb",2,0.0031695866666665573,Cubic,225,Fm-3m,1.3192,False,False
mp-1007853,Fe3Ni,"Fe, Ni",2,0.05910454999999981,Cubic,225,Fm-3m,0.0,True,True
mp-1186603,PmMg3,"Mg, Pm",2,0.0,Cubic,225,Fm-3m,0.0,True,True
mp-11489,Li3Pd,"Li, Pd",2,0.007513318035715422,Cubic,225,Fm-3m,0.0,False,True
mp-1959,PuO2,"O, Pu",2,0.0,Cubic,225,Fm-3m,0.0,False,True
mp-1144,ErP,"Er, P",2,0.0,Cubic,225,Fm-3m,0.0,False,True
mp-669648,Ho6Mn23,"Ho, Mn",2,0.01630237316091865,Cubic,225,Fm-3m,0.0,False,True
mp-24096,NdH2,"H, Nd",2,0.0,Cubic,225,Fm-3m,0.0,False,True
mp-542583,EuTe,"Eu, Te",2,0.0,Cubic,225,Fm-3m,0.0,False,True
mp-865385,V3Re,"Re, V",2,0.0,Cubic,225,Fm-3m,0.0,True,True
mp-1007,DySb,"Dy, Sb",2,0.0,Cubic,225,Fm-3m,0.0,False,True
mp-1086,TaC,"C, Ta",2,0.0,Cubic,225,Fm-3m,0.0,False,True
mp-24288,LuH2,"H, Lu",2,0.0,Cubic,225,Fm-3m,0.0,False,True
mp-631,TiC,"C, Ti",2,0.0,Cubic,225,Fm-3m,0.0,False,True
mp-867227,Li3Pt,"Li, Pt",2,0.008406470833334012,Cubic,225,Fm-3m,0.0,True,True
mp-1185924,Mn3Re,"Mn, Re",2,0.05981454530172314,Cubic,225,Fm-3m,0.0,True,True
mp-542758,Fe23B6,"B, Fe",2,0.021567803793102414,Cubic,225,Fm-3m,0.0,True,True
mp-973402,SbPd3,"Pd, Sb",2,0.04927606535714446,Cubic,225,Fm-3m,0.0,True,True
mp-10622,PrAs,"As, Pr",2,0.0,Cubic,225,Fm-3m,0.0,False,True
mp-1009756,Ca2Pb,"Ca, Pb",2,0.014137890833334943,Cubic,225,Fm-3m,0.6495000000000002,True,False
mp-2281,SmSb,"Sb, Sm",2,0.0,Cubic,225,Fm-3m,0.0,False,True
mp-2566,PuSb,"Pu, Sb",2,0.0049041697499934145,Cubic,225,Fm-3m,0.0,False,True
mp-1192854,Y6Zn23,"Y, Zn",2,0.01656064336206775,Cubic,225,Fm-3m,0.0,False,True
mp-1784,CsF,"Cs, F",2,0.0,Cubic,225,Fm-3m,5.2626,False,False
mp-2489,UC,"C, U",2,0.0,Cubic,225,Fm-3m,0.0,False,True
mp-865907,LiZn3,"Li, Zn",2,0.0,Cubic,225,Fm-3m,0.0,True,True
mp-2086,PuS,"Pu, S",2,0.0,Cubic,225,Fm-3m,0.0,False,True
mp-574283,GdTe,"Gd, Te",2,0.0646184849999969,Cubic,225,Fm-3m,0.0,False,True
mp-10635,SnSb,"Sb, Sn",2,0.03763386499999655,Cubic,225,Fm-3m,0.0,False,True
mp-1001600,HfB12,"B, Hf",2,0.05643777115383841,Cubic,225,Fm-3m,0.0,False,True
mp-19962,Sn2Pt,"Pt, Sn",2,0.0,Cubic,225,Fm-3m,0.0,False,True
mp-1103476,DyB12,"B, Dy",2,0.0,Cubic,225,Fm-3m,0.0,False,True
mp-1186018,Na3Au,"Au, Na",2,0.043165679999997764,Cubic,225,Fm-3m,0.0,True,True
mp-2379,CoSi2,"Co, Si",2,0.0,Cubic,225,Fm-3m,0.0,False,True
mp-1194143,Sc11Ru4,"Ru, Sc",2,0.0,Cubic,225,Fm-3m,0.0,False,True
mp-8289,SnF3,"F, Sn",2,0.014627814687500518,Cubic,225,Fm-3m,2.7195,False,False
mp-2286,Li2Se,"Li, Se",2,0.0,Cubic,225,Fm-3m,2.9746,False,False
mp-2154,CeP,"Ce, P",2,0.0,Cubic,225,Fm-3m,0.0,False,True
mp-21075,HfC,"C, Hf",2,0.0,Cubic,225,Fm-3m,0.0,False,True
mp-1104066,TbB12,"B, Tb",2,0.0,Cubic,225,Fm-3m,0.0,False,True
mp-568059,LuBi,"Bi, Lu",2,0.0,Cubic,225,Fm-3m,0.0,False,True
mp-1546,DyMg3,"Dy, Mg",2,0.0,Cubic,225,Fm-3m,0.0,False,True
mp-919,HoTe,"Ho, Te",2,0.0,Cubic,225,Fm-3m,0.0,False,True
mp-645,TbP,"P, Tb",2,0.0,Cubic,225,Fm-3m,0.0,False,True
mp-1065,LaSb,"La, Sb",2,0.0,Cubic,225,Fm-3m,0.0,False,True
mp-1186580,PmHg3,"Hg, Pm",2,0.0,Cubic,225,Fm-3m,0.0,True,True
mp-24092,GdH2,"Gd, H",2,0.0,Cubic,225,Fm-3m,0.0,False,True