material_id,formula,elements,num_elements,energy_above_hull,crystal_system,spacegroup_number,spacegroup_symbol,band_gap,theoretical,is_metal
mp-1214397,Bi8Te7,"Bi, Te",2,0.005230185555555877,Trigonal,164,P-3m1,0.09450000000000003,True,False
mp-23178,WCl6,"Cl, W",2,0.00036721619047774823,Trigonal,164,P-3m1,1.7484,False,False
mp-22893,PbI2,"I, Pb",2,0.0016431300000006033,Trigonal,164,P-3m1,2.3703,False,False
mp-571122,FeI2,"Fe, I",2,0.0,Trigonal,164,P-3m1,0.0,False,True
mp-22877,VCl2,"Cl, V",2,0.0,Trigonal,164,P-3m1,1.2559999999999998,False,False
mp-1213750,Cr5Te8,"Cr, Te",2,0.012061828461538582,Trigonal,164,P-3m1,0.0,True,True
mp-1226072,Co4H,"Co, H",2,0.012287146000001137,Trigonal,164,P-3m1,0.0,True,True
mp-1221498,Mo2C,"C, Mo",2,0.06276392999999736,Trigonal,164,P-3m1,0.0,True,True
mp-1220660,NbCo3,"Co, Nb",2,0.07618887000000019,Trigonal,164,P-3m1,0.0,True,True
mp-23224,BiTe,"Bi, Te",2,0.0017959658333333017,Trigonal,164,P-3m1,0.0,False,True
mp-1009641,CoTe2,"Co, Te",2,0.01920619166666171,Trigonal,164,P-3m1,0.0,False,True
mp-7655,BaSi2,"Ba, Si",2,0.04188208374999913,Trigonal,164,P-3m1,0.0,False,True
mp-31473,K2Hg7,"Hg, K",2,0.0,Trigonal,164,P-3m1,0.0,False,True
mp-13068,Lu2O3,"Lu, O",2,0.08415882150000087,Trigonal,164,P-3m1,4.0883,True,False
mp-971787,VBr2,"Br, V",2,0.0,Trigonal,164,P-3m1,1.1332,False,False
mp-1028441,WS2,"S, W",2,0.0037932516666643323,Trigonal,164,P-3m1,1.6559000000000001,True,False
mp-1023939,MoS2,"Mo, S",2,0.007235794999999712,Trigonal,164,P-3m1,1.5539,True,False
mp-28116,TiCl2,"Cl, Ti",2,0.04266118256944473,Trigonal,164,P-3m1,0.0,False,True
mp-753890,Ni2H,"H, Ni",2,0.046298079999999686,Trigonal,164,P-3m1,0.0,False,True
mp-10901,Al3Pd2,"Al, Pd",2,0.0,Trigonal,164,P-3m1,0.0,False,True
mp-30761,Li7Pb2,"Li, Pb",2,0.0,Trigonal,164,P-3m1,0.0,False,True
mp-1205930,Li5Ga4,"Ga, Li",2,0.0,Trigonal,164,P-3m1,0.0,True,True
mp-11324,TaSe2,"Se, Ta",2,0.030391961666666134,Trigonal,164,P-3m1,0.0,False,True
mp-21400,Ga3Pt2,"Ga, Pt",2,0.003775965500002698,Trigonal,164,P-3m1,0.0,False,True
mp-569610,CoI2,"Co, I",2,0.0,Trigonal,164,P-3m1,0.0,False,True
mp-1215401,ZnCu2,"Cu, Zn",2,0.027615473333333806,Trigonal,164,P-3m1,0.0,True,True
mp-30033,CoBr2,"Br, Co",2,0.0,Trigonal,164,P-3m1,0.10720000000000007,False,False
mp-7540,Cu3P,"Cu, P",2,0.05943006718749899,Trigonal,164,P-3m1,0.0,False,True
mp-7088,Ta2C,"C, Ta",2,0.0,Trigonal,164,P-3m1,0.0,False,True
mp-1214190,Bi2Se,"Bi, Se",2,0.04765063694445004,Trigonal,164,P-3m1,0.0,True,True
mp-1215,Ti2O,"O, Ti",2,0.0,Trigonal,164,P-3m1,0.0,False,True
mp-399,Te2Pt,"Pt, Te",2,0.0,Trigonal,164,P-3m1,0.0,False,True
mp-29803,SiH,"H, Si",2,0.04131177843749967,Trigonal,164,P-3m1,2.1634,False,False
mp-22880,FeBr2,"Br, Fe",2,0.0,Trigonal,164,P-3m1,0.0,False,True
mp-570259,MgCl2,"Cl, Mg",2,0.0007418733333333094,Trigonal,164,P-3m1,5.5713,False,False
mp-696114,CoCl2,"Cl, Co",2,0.00119019666666631,Trigonal,164,P-3m1,0.07909999999999995,True,False
mp-228,Te2Rh,"Rh, Te",2,0.0,Trigonal,164,P-3m1,0.0,False,True
mp-10886,Al3Cu2,"Al, Cu",2,0.029272975999999673,Trigonal,164,P-3m1,0.0,False,True
mp-995193,Si3H,"H, Si",2,0.03147248546874959,Trigonal,164,P-3m1,0.8982000000000001,True,False
mp-1229093,Ag2Hg,"Ag, Hg",2,0.05466904416666907,Trigonal,164,P-3m1,0.0,True,True
mp-1096986,HC,"C, H",2,0.06308363093749936,Trigonal,164,P-3m1,3.0918,True,False
mp-1222013,MgAl2,"Al, Mg",2,0.06252564750000067,Trigonal,164,P-3m1,0.0,True,True
mp-30769,Li13Sn5,"Li, Sn",2,0.0033475494444448195,Trigonal,164,P-3m1,0.0,False,True
mp-985831,HfSe2,"Hf, Se",2,0.0,Trigonal,164,P-3m1,0.5342000000000002,False,False
mp-1094559,LiMg2,"Li, Mg",2,0.046558658333333724,Trigonal,164,P-3m1,0.0,True,True
mp-1206728,TbHg2,"Hg, Tb",2,0.011255822500004342,Trigonal,164,P-3m1,0.0,True,True
mp-755263,CrS2,"Cr, S",2,0.0,Trigonal,164,P-3m1,0.0,True,True
mp-1907,TiTe2,"Te, Ti",2,0.0,Trigonal,164,P-3m1,0.0,False,True
mp-1391,Ag2F,"Ag, F",2,0.0,Trigonal,164,P-3m1,0.0,False,True
mp-571096,FeCl2,"Cl, Fe",2,0.0,Trigonal,164,P-3m1,0.0,False,True
mp-567567,CdI2,"Cd, I",2,0.0012378506666661515,Trigonal,164,P-3m1,2.3514999999999997,False,False
mp-685049,IF7,"F, I",2,0.04717282499999964,Orthorhombic,17,P222_1,1.6861,True,False
mp-1101191,V3F10,"F, V",2,0.07081437884615305,Orthorhombic,17,P222_1,0.0,True,True
mp-755021,ReO3,"O, Re",2,0.0056117100000001585,Trigonal,167,R-3c,0.0,True,True
mp-2068,RhF3,"F, Rh",2,0.0,Trigonal,167,R-3c,0.8625999999999999,False,False
mp-861945,Ag2F3,"Ag, F",2,0.03560074050000139,Trigonal,167,R-3c,0.0,True,True
mp-14787,Tm2S3,"S, Tm",2,0.013243524750002678,Trigonal,167,R-3c,2.5249,False,False
mp-1079029,Al2S3,"Al, S",2,0.04132971800000007,Trigonal,167,R-3c,2.4329,False,False
mp-2826,Lu2S3,"Lu, S",2,0.0,Trigonal,167,R-3c,2.5664,False,False
mp-23933,AlH3,"Al, H",2,0.0,Trigonal,167,R-3c,2.1976999999999998,False,False
mp-861979,Ir2S3,"Ir, S",2,0.000835235500002085,Trigonal,167,R-3c,1.1376999999999997,True,False
mp-22375,In2S3,"In, S",2,0.021857159000001403,Trigonal,167,R-3c,0.2801999999999998,False,False
mp-568488,Mo15Se19,"Mo, Se",2,0.06543983102941198,Trigonal,167,R-3c,0.0,False,True
mp-866083,Zr3N2,"N, Zr",2,0.02126967899999954,Trigonal,167,R-3c,0.0,True,True
mp-974381,Rh2S3,"Rh, S",2,0.0,Trigonal,167,R-3c,0.4203000000000001,True,False
mp-977351,Ac2S3,"Ac, S",2,0.05269962274999784,Trigonal,167,R-3c,3.0275000000000003,True,False
mp-1187591,Ti3N2,"N, Ti",2,0.03124664899999985,Trigonal,167,R-3c,0.0,True,True
mp-1183524,Bi2O3,"Bi, O",2,0.033926611499999204,Trigonal,167,R-3c,2.0782000000000007,True,False
mp-18937,V2O3,"O, V",2,0.008657174250000566,Trigonal,167,R-3c,0.0,False,True
mp-2437,IrF3,"F, Ir",2,0.0,Trigonal,167,R-3c,1.1410999999999998,False,False
mp-19770,Fe2O3,"Fe, O",2,0.0,Trigonal,167,R-3c,0.0,False,True
mp-1074039,Mg9Si5,"Mg, Si",2,0.055550323571428084,Trigonal,167,R-3c,0.0,True,True
mp-561428,NiF3,"F, Ni",2,0.00705652750000052,Trigonal,167,R-3c,0.0,True,True
mp-569570,K8Tl11,"K, Tl",2,0.0,Trigonal,167,R-3c,0.0,False,True
mp-588,GaF3,"F, Ga",2,0.0,Trigonal,167,R-3c,4.7051,False,False
mp-863259,Pm2S3,"Pm, S",2,0.0,Trigonal,167,R-3c,2.4211,True,False
mp-978968,Ti3O2,"O, Ti",2,0.05269582400000061,Trigonal,167,R-3c,0.0,True,True
mp-7586,Ni3C,"C, Ni",2,0.05891355562500067,Trigonal,167,R-3c,0.0,False,True
mp-29013,Ca14Si19,"Ca, Si",2,0.006230816060606159,Trigonal,167,R-3c,0.0,False,True
mp-14513,Ni8P3,"Ni, P",2,0.002314582196968118,Trigonal,167,R-3c,0.03200000000000003,True,False
mp-557539,MoF3,"F, Mo",2,0.0,Trigonal,167,R-3c,3.4355,False,False
mp-684890,Tb4F15,"F, Tb",2,0.03699697434210414,Trigonal,167,R-3c,0.0,False,True
mp-1143,Al2O3,"Al, O",2,0.0,Trigonal,167,R-3c,5.853700000000001,False,False
mp-1190699,CO2,"C, O",2,0.007384180833334142,Trigonal,167,R-3c,6.496700000000001,False,False
mp-582929,K8In11,"In, K",2,0.0,Trigonal,167,R-3c,0.0,False,True
mp-559473,CoF3,"Co, F",2,0.05231041562499961,Trigonal,167,R-3c,0.0,False,True
mp-1183728,Co2S3,"Co, S",2,0.01493341500000156,Trigonal,167,R-3c,0.0,True,True
mp-7570,RuF3,"F, Ru",2,0.0,Trigonal,167,R-3c,0.0,False,True
mp-6949,InF3,"F, In",2,0.0,Trigonal,167,R-3c,4.0226,False,False
mp-640712,Rb8In11,"In, Rb",2,0.0,Trigonal,167,R-3c,0.0,False,True
mp-22323,In2O3,"In, O",2,0.02070457724999919,Trigonal,167,R-3c,0.9586000000000006,False,False
mp-541846,P4O9,"O, P",2,0.049576759100734336,Trigonal,167,R-3c,5.5643,False,False
mp-864635,Ag2Cl3,"Ag, Cl",2,0.0,Trigonal,167,R-3c,0.0,True,True
mp-705480,MnF4,"F, Mn",2,0.06729950416666775,Trigonal,167,R-3c,0.10239999999999982,True,False
mp-862982,Ag2Br3,"Ag, Br",2,0.0,Trigonal,167,R-3c,0.0,True,True
mp-770543,Mn2O3,"Mn, O",2,0.064272060375,Trigonal,167,R-3c,0.0,True,True
mp-19399,Cr2O3,"Cr, O",2,0.0,Trigonal,167,R-3c,0.0,False,True
mp-574458,Zr21Re25,"Re, Zr",2,0.0,Trigonal,167,R-3c,0.0,False,True
mp-1203605,Hf21Re25,"Hf, Re",2,0.0,Trigonal,167,R-3c,0.0,False,True
mp-1243,Ga2O3,"Ga, O",2,0.011431887000000529,Trigonal,167,R-3c,2.4025,False,False
mp-755313,Sc2O3,"O, Sc",2,0.0363928947500014,Trigonal,167,R-3c,4.127599999999999,True,False
mp-16480,Al3Au8,"Al, Au",2,0.001997207272729895,Trigonal,167,R-3c,0.0,False,True
mp-1202079,Ti21Mn25,"Mn, Ti",2,0.0,Trigonal,167,R-3c,0.0,False,True
mp-1191566,Zn6Sb5,"Sb, Zn",2,0.029770598181816155,Trigonal,167,R-3c,0.0,False,True
mp-541787,Na8Hg3,"Hg, Na",2,0.0,Trigonal,167,R-3c,0.0,False,True
mp-1198995,Sb3Pd8,"Pd, Sb",2,0.0,Trigonal,167,R-3c,0.0,False,True
mp-13679,PdF3,"F, Pd",2,0.0,Trigonal,167,R-3c,0.0,False,True
mp-754759,Y2O3,"O, Y",2,0.0494411072500025,Trigonal,167,R-3c,4.4468,True,False
mp-570025,Mg21Zn25,"Mg, Zn",2,0.0,Trigonal,167,R-3c,0.0,False,True
mp-542734,Rh2O3,"O, Rh",2,0.008459699499999473,Trigonal,167,R-3c,0.6193,False,False
mp-862869,Pa2S3,"Pa, S",2,0.0,Trigonal,167,R-3c,0.0,True,True
mp-560338,CrF3,"Cr, F",2,0.0,Trigonal,167,R-3c,3.0453,False,False
mp-862796,Pu2S3,"Pu, S",2,0.04798489600000089,Trigonal,167,R-3c,0.0,True,True
mp-559931,VF3,"F, V",2,0.0,Trigonal,167,R-3c,1.6025,False,False
mp-1190320,Al6Ge5,"Al, Ge",2,0.04388412090908922,Trigonal,167,R-3c,0.4901,False,False
mp-22398,FeF3,"F, Fe",2,0.0,Trigonal,167,R-3c,3.1061,False,False
mp-468,AlF3,"Al, F",2,0.0,Trigonal,167,R-3c,7.6012,False,False
mp-28112,In5Cl9,"Cl, In",2,0.0,Trigonal,167,R-3c,2.9777,False,False
mp-978093,Ho2S3,"Ho, S",2,0.008038992333336381,Trigonal,167,R-3c,2.4745,True,False
mp-28044,TmCl3,"Cl, Tm",2,0.0,Trigonal,167,R-3c,4.918,False,False
mp-571053,Al5Mo,"Al, Mo",2,0.009455564999999666,Trigonal,167,R-3c,0.0,False,True
mp-1047,Ca3N2,"Ca, N",2,0.01669766374999959,Trigonal,167,R-3c,0.7787000000000002,False,False
mp-542781,Rb8Tl11,"Rb, Tl",2,0.0,Trigonal,167,R-3c,0.0,False,True
mp-562468,TiF3,"F, Ti",2,0.002355126250000339,Trigonal,167,R-3c,0.0,False,True
mp-2552,TeO3,"O, Te",2,0.02012155250000003,Trigonal,167,R-3c,1.1502999999999997,False,False
mp-768247,PtO3,"O, Pt",2,0.08650876656249906,Trigonal,167,R-3c,0.0,True,True
mp-1078300,ScF3,"F, Sc",2,0.0,Trigonal,167,R-3c,6.105700000000001,False,False
mp-458,Ti2O3,"O, Ti",2,0.0,Trigonal,167,R-3c,0.0,False,True
mp-974355,Mn2S3,"Mn, S",2,0.03270704200000196,Trigonal,167,R-3c,0.0,True,True
mp-16860,Mg13Ir3,"Ir, Mg",2,0.015399822382246686,Trigonal,167,R-3c,0.0,False,True
mp-1200207,Cs8Ga11,"Cs, Ga",2,0.0,Trigonal,167,R-3c,0.0,False,True
mp-14024,Zr3O,"O, Zr",2,0.0,Trigonal,167,R-3c,0.0,False,True
mp-568495,Cu10Sn3,"Cu, Sn",2,0.02194780346153813,Hexagonal,173,P6_3,0.0,False,True
mp-27529,PI3,"I, P",2,0.0,Hexagonal,173,P6_3,2.2746,False,False
mp-1207538,Zn17Co3,"Co, Zn",2,0.01235160124712742,Hexagonal,171,P6_2,0.0,True,True
mp-530546,SiO2,"O, Si",2,0.011577059135801093,Hexagonal,175,P6/m,5.5611999999999995,True,False
mp-12283,Li5Tl2,"Li, Tl",2,0.0,Trigonal,166,R-3m,0.0,False,True
mp-1105910,Pu2Zn17,"Pu, Zn",2,0.0,Trigonal,166,R-3m,0.0,False,True
mp-1189379,Tb2Ni7,"Ni, Tb",2,0.0,Trigonal,166,R-3m,0.0,False,True
mp-1103015,TmFe3,"Fe, Tm",2,0.0,Trigonal,166,R-3m,0.0,False,True
mp-1225742,CuAu4,"Au, Cu",2,0.03221613199999984,Trigonal,166,R-3m,0.0,True,True
mp-1194918,Bi4Ir,"Bi, Ir",2,0.0,Trigonal,166,R-3m,0.0,False,True
mp-1220039,OsPt4,"Os, Pt",2,0.021775896000008288,Trigonal,166,R-3m,0.0,True,True
mp-1224976,FeNi,"Fe, Ni",2,0.06864735499999952,Trigonal,166,R-3m,0.0,True,True
mp-540884,YCl,"Cl, Y",2,0.03711021833333206,Trigonal,166,R-3m,0.0,False,True
mp-369,TbAl3,"Al, Tb",2,0.011453936249999686,Trigonal,166,R-3m,0.0,False,True
mp-1226026,CoRh,"Co, Rh",2,0.08239013749999913,Trigonal,166,R-3m,0.0,True,True
mp-1102078,DyNi3,"Dy, Ni",2,0.0,Trigonal,166,R-3m,0.0,False,True
mp-1225044,Er2C,"C, Er",2,0.0,Trigonal,166,R-3m,0.0,True,True
mp-1101819,DyFe3,"Dy, Fe",2,0.0,Trigonal,166,R-3m,0.0,False,True
mp-696746,B4C,"B, C",2,0.0811888939999994,Trigonal,166,R-3m,1.5149,False,False
mp-576,B13C2,"B, C",2,0.0,Trigonal,166,R-3m,0.0,False,True
mp-754434,Hf3N4,"Hf, N",2,0.07350541678571432,Trigonal,166,R-3m,1.0917000000000003,True,False
mp-1188550,Ce2Co7,"Ce, Co",2,0.034658021666666095,Trigonal,166,R-3m,0.0,False,True
mp-1205432,Tb2Co7,"Co, Tb",2,0.006579357020202181,Trigonal,166,R-3m,0.0,False,True
mp-1219940,Pd4W,"Pd, W",2,0.0069308079999998995,Trigonal,166,R-3m,0.0,True,True
mp-1216471,V4C3,"C, V",2,0.08764150708333318,Trigonal,166,R-3m,0.0,True,True
mp-1222127,Mg4Sc,"Mg, Sc",2,0.06525975500000003,Trigonal,166,R-3m,0.0,True,True
mp-568012,Tb2Zn17,"Tb, Zn",2,0.0,Trigonal,166,R-3m,0.0,False,True
mp-528,U2Zn17,"U, Zn",2,0.04503231657895013,Trigonal,166,R-3m,0.0,False,True
mp-1215899,YTh,"Th, Y",2,0.05754976500000453,Trigonal,166,R-3m,0.0,True,True
mp-27638,NiI2,"I, Ni",2,0.0,Trigonal,166,R-3m,0.0,False,True
mp-1105734,Ho2Co7,"Co, Ho",2,0.04591528803030265,Trigonal,166,R-3m,0.0,False,True
mp-30715,Lu2Zn17,"Lu, Zn",2,0.0,Trigonal,166,R-3m,0.0,False,True
mp-1190297,DyGa3,"Dy, Ga",2,0.014613486249999141,Trigonal,166,R-3m,0.0,False,True
mp-1188546,Th2Co7,"Co, Th",2,0.023621760555556648,Trigonal,166,R-3m,0.0,False,True
mp-1102848,LaIr3,"Ir, La",2,0.008618540000007613,Trigonal,166,R-3m,0.0,False,True
mp-1228947,AlAg4,"Ag, Al",2,0.07357737826666977,Trigonal,166,R-3m,0.0,True,True
mp-1223819,InAg4,"Ag, In",2,0.09995672866666538,Trigonal,166,R-3m,0.0,True,True
mp-568722,CdBr2,"Br, Cd",2,0.0,Trigonal,166,R-3m,2.8551,True,False
mp-1221525,Mo2N,"Mo, N",2,0.02555961749999902,Trigonal,166,R-3m,0.0,True,True
mp-2647067,LaH20,"H, La",2,0.08269894261904742,Trigonal,166,R-3m,0.0,True,True
mp-1245,Sr2N,"N, Sr",2,0.0,Trigonal,166,R-3m,0.0,False,True
mp-1185959,MgS2,"Mg, S",2,0.0,Trigonal,166,R-3m,1.1336999999999997,True,False
mp-1104033,Nb6Cr7,"Cr, Nb",2,0.0368280615384613,Trigonal,166,R-3m,0.0,True,True
mp-1225078,FeNi3,"Fe, Ni",2,0.07870095999999993,Trigonal,166,R-3m,0.0,True,True
mp-898,HoAl3,"Al, Ho",2,0.008098918750000905,Trigonal,166,R-3m,0.0,False,True
mp-1227650,BaSr4,"Ba, Sr",2,0.0,Trigonal,166,R-3m,0.0,True,True
mp-2331,B2Mo,"B, Mo",2,0.0,Trigonal,166,R-3m,0.0,False,True
mp-30766,Li5Sn2,"Li, Sn",2,0.0,Trigonal,166,R-3m,0.0,False,True
mp-1190300,Ho2Ni7,"Ho, Ni",2,0.0,Trigonal,166,R-3m,0.0,False,True
mp-1080258,Cs2Se,"Cs, Se",2,0.0690094283333309,Trigonal,166,R-3m,1.5913,True,False
mp-1216575,Tl4Bi,"Bi, Tl",2,0.02859189433333409,Trigonal,166,R-3m,0.0,True,True
mp-1220054,NiRh,"Ni, Rh",2,0.09386531999999903,Trigonal,166,R-3m,0.0,True,True
mp-569843,MnBr2,"Br, Mn",2,0.00012977333333452634,Trigonal,166,R-3m,1.5293999999999999,False,False
mp-27679,LaBr,"Br, La",2,0.09736768799999851,Trigonal,166,R-3m,0.0,False,True
mp-1095619,SmNi3,"Ni, Sm",2,0.0,Trigonal,166,R-3m,0.0,False,True
mp-1106070,Dy2Co17,"Co, Dy",2,0.0,Trigonal,166,R-3m,0.0,False,True
mp-23210,MgCl2,"Cl, Mg",2,0.0,Trigonal,166,R-3m,5.6168,False,False
mp-27772,Nb3I8,"I, Nb",2,0.0,Trigonal,166,R-3m,0.06770000000000032,False,False
mp-1540935,GeI2,"Ge, I",2,0.000769172222223613,Trigonal,166,R-3m,2.0087,True,False
mp-752536,Mn5O8,"Mn, O",2,0.08359430060897388,Trigonal,166,R-3m,0.0,True,True
mp-568690,CdBr2,"Br, Cd",2,0.00012642833333487147,Trigonal,166,R-3m,2.8798,False,False
mp-541180,Te3Pt2,"Pt, Te",2,0.0,Trigonal,166,R-3m,0.0,False,True
mp-569960,ZnBr2,"Br, Zn",2,0.08526342604166715,Trigonal,166,R-3m,3.2672999999999996,False,False
mp-1190187,Nd2Ni7,"Nd, Ni",2,0.0,Trigonal,166,R-3m,0.0,False,True
mp-1219836,Pr2Y,"Pr, Y",2,0.05606909555555717,Trigonal,166,R-3m,0.0,True,True
mp-27814,CS14,"C, S",2,0.0,Trigonal,166,R-3m,2.5569,False,False
mp-27923,TbCl,"Cl, Tb",2,0.07182018583333516,Trigonal,166,R-3m,0.0,False,True
mp-1224108,HgPb4,"Hg, Pb",2,0.023017000499997664,Trigonal,166,R-3m,0.0,True,True
mp-1411545,NiS2,"Ni, S",2,0.03497927666666634,Trigonal,166,R-3m,0.5278999999999998,True,False
mp-1813,Ba2Mg17,"Ba, Mg",2,0.0,Trigonal,166,R-3m,0.0,False,True
mp-7285,HfNi3,"Hf, Ni",2,0.002178646916664917,Trigonal,166,R-3m,0.0,False,True
mp-624,B6As,"As, B",2,0.0,Trigonal,166,R-3m,2.6454000000000004,False,False
mp-569594,Fe7Mo6,"Fe, Mo",2,0.00687256875739628,Trigonal,166,R-3m,0.0,False,True
mp-1188219,Er2Ni7,"Er, Ni",2,0.0,Trigonal,166,R-3m,0.0,False,True
mp-1061732,MgZr2,"Mg, Zr",2,0.04071996166666736,Trigonal,166,R-3m,0.0,False,True
mp-12574,Dy2C,"C, Dy",2,0.0,Trigonal,166,R-3m,0.0,False,True
mp-1101900,LuCo3,"Co, Lu",2,0.04419780583333388,Trigonal,166,R-3m,0.0,False,True
mp-1460,RbGa7,"Ga, Rb",2,0.0,Trigonal,166,R-3m,0.0,False,True
mp-1094418,YMg2,"Mg, Y",2,0.010633956666666666,Trigonal,166,R-3m,0.0,True,True
mp-11273,Be3Nb,"Be, Nb",2,0.0,Trigonal,166,R-3m,0.0,False,True
mp-1892,Ba2N,"Ba, N",2,0.0,Trigonal,166,R-3m,0.0,False,True
mp-1219925,PdRh,"Pd, Rh",2,0.09264933000000042,Trigonal,166,R-3m,0.0,True,True
mp-1217474,TbTh,"Tb, Th",2,0.02695285500000466,Trigonal,166,R-3m,0.0,True,True
mp-17639,Y2Zn17,"Y, Zn",2,0.0,Trigonal,166,R-3m,0.0,False,True
mp-30713,Ho2Zn17,"Ho, Zn",2,0.0,Trigonal,166,R-3m,0.0,False,True
mp-1216296,VPd4,"Pd, V",2,0.055600324000000256,Trigonal,166,R-3m,0.0,True,True
mp-1105643,Hf2Be17,"Be, Hf",2,0.0019026751754385174,Trigonal,166,R-3m,0.0,False,True
mp-1189139,Th2Fe7,"Fe, Th",2,0.0017335758333310025,Trigonal,166,R-3m,0.0,False,True
mp-1225704,CuRh,"Cu, Rh",2,0.06490085000000079,Trigonal,166,R-3m,0.0,True,True
mp-27396,NiCl2,"Cl, Ni",2,0.0,Trigonal,166,R-3m,0.0,False,True
mp-1224413,H3Pd4,"H, Pd",2,0.013056976428570621,Trigonal,166,R-3m,0.0,True,True
mp-8628,Te4Pt3,"Pt, Te",2,0.0,Trigonal,166,R-3m,0.0,False,True
mp-2584,TbFe3,"Fe, Tb",2,0.0,Trigonal,166,R-3m,0.0,False,True
mp-1216560,Tl4Sn,"Sn, Tl",2,0.045918155999999044,Trigonal,166,R-3m,0.0,True,True
mp-1077925,Na5Sn2,"Na, Sn",2,0.0,Trigonal,166,R-3m,0.0,False,True
mp-1105572,Ce2Co17,"Ce, Co",2,0.011873360526315047,Trigonal,166,R-3m,0.0,False,True
mp-1225722,Cu5Ge2,"Cu, Ge",2,0.07095628690476197,Trigonal,166,R-3m,0.0,True,True
mp-1640,Ho2C,"C, Ho",2,0.0,Trigonal,166,R-3m,0.0,False,True
mp-1102468,UCo3,"Co, U",2,0.02116366833332961,Trigonal,166,R-3m,0.0,False,True
mp-16932,Th2Co17,"Co, Th",2,0.0,Trigonal,166,R-3m,0.0,False,True
mp-23229,FeCl2,"Cl, Fe",2,0.021833396666667504,Trigonal,166,R-3m,0.03569999999999984,False,False
mp-7851,TaCo3,"Co, Ta",2,0.022571235833334313,Trigonal,166,R-3m,0.0,False,True
mp-1334,Y2C,"C, Y",2,0.0,Trigonal,166,R-3m,0.0,False,True
mp-1106043,Sm2Co7,"Co, Sm",2,0.04046873361111736,Trigonal,166,R-3m,0.0,False,True
mp-1190915,TcCl3,"Cl, Tc",2,0.0,Trigonal,166,R-3m,0.6643000000000001,False,False
mp-1215579,ZnPd4,"Pd, Zn",2,0.04681220850000134,Trigonal,166,R-3m,0.0,True,True
mp-1105040,Ta6Zn7,"Ta, Zn",2,0.0,Trigonal,166,R-3m,0.0,False,True
mp-1218996,SmTh,"Sm, Th",2,0.036626519999998663,Trigonal,166,R-3m,0.0,True,True
mp-23240,CoCl2,"Cl, Co",2,0.0,Trigonal,166,R-3m,0.08430000000000004,False,False
mp-1024,CaGe2,"Ca, Ge",2,0.001824318333333963,Trigonal,166,R-3m,0.0,False,True
mp-1218357,SrCa,"Ca, Sr",2,0.051083300000000165,Trigonal,166,R-3m,0.0,True,True
mp-1051,ErNi3,"Er, Ni",2,0.0,Trigonal,166,R-3m,0.0,False,True
mp-567724,TaSe2,"Se, Ta",2,0.03174345499999731,Trigonal,166,R-3m,0.0,False,True
mp-1217954,TaNi,"Ni, Ta",2,0.027389137076927028,Trigonal,166,R-3m,0.0,True,True
mp-1039305,MgBi,"Bi, Mg",2,0.06292134499999769,Trigonal,166,R-3m,0.0,True,True
mp-1346,B6O,"B, O",2,0.0,Trigonal,166,R-3m,1.8563999999999998,False,False
mp-30710,Pr2Zn17,"Pr, Zn",2,0.0,Trigonal,166,R-3m,0.0,False,True
mp-542333,Cu9S5,"Cu, S",2,0.07221071397321488,Trigonal,166,R-3m,0.0,False,True
mp-1094578,LiMg,"Li, Mg",2,0.029401987500000004,Trigonal,166,R-3m,0.0,True,True
mp-9568,Li3Ga2,"Ga, Li",2,0.0,Trigonal,166,R-3m,0.0,False,True
mp-30712,Sm2Zn17,"Sm, Zn",2,0.0,Trigonal,166,R-3m,0.0,False,True
mp-1229015,AgPt,"Ag, Pt",2,0.0031163149999997586,Trigonal,166,R-3m,0.0,True,True
mp-1220390,NbAu4,"Au, Nb",2,0.07323263600000018,Trigonal,166,R-3m,0.0,True,True
mp-540789,PbI2,"I, Pb",2,0.0007709133333313467,Trigonal,166,R-3m,2.3735,False,False
mp-555037,TaS2,"S, Ta",2,0.01776825999999687,Trigonal,166,R-3m,0.0,False,True
mp-1104956,Ta6Fe7,"Fe, Ta",2,0.0,Trigonal,166,R-3m,0.0,False,True
mp-1068510,In2Te3,"In, Te",2,0.06727930497777734,Trigonal,166,R-3m,0.0,False,True
mp-28229,Bi4Te3,"Bi, Te",2,0.0,Trigonal,166,R-3m,0.0,True,True
mp-1102252,TmCo3,"Co, Tm",2,0.047106318717949236,Trigonal,166,R-3m,0.0,False,True
mp-1102437,ThCo3,"Co, Th",2,0.026514756166665876,Trigonal,166,R-3m,0.0,False,True