material_id,formula,elements,num_elements,energy_above_hull,crystal_system,spacegroup_number,spacegroup_symbol,band_gap,theoretical,is_metal
mp-1079783,EuAl,"Al, Eu",2,0.07436806100000126,Orthorhombic,63,Cmcm,0.0,True,True
mp-999306,PrAu,"Au, Pr",2,0.0,Orthorhombic,63,Cmcm,0.0,False,True
mp-636614,YPb2,"Pb, Y",2,0.0,Orthorhombic,63,Cmcm,0.0,False,True
mp-10638,ZrSb,"Sb, Zr",2,0.0,Orthorhombic,63,Cmcm,0.0,False,True
mp-571555,InCl,"Cl, In",2,0.0031331506249987484,Orthorhombic,63,Cmcm,1.4744000000000002,False,False
mp-16529,Al6Ru,"Al, Ru",2,0.0,Orthorhombic,63,Cmcm,0.0,False,True
mp-568949,TlBr,"Br, Tl",2,0.0,Orthorhombic,63,Cmcm,2.1678,False,False
mp-2668,Mn3As,"As, Mn",2,0.00266182853448349,Orthorhombic,63,Cmcm,0.0,False,True
mp-1066577,NpPt,"Np, Pt",2,0.0,Orthorhombic,63,Cmcm,0.0,False,True
mp-861620,LaZn4,"La, Zn",2,0.0,Orthorhombic,63,Cmcm,0.0,False,True
mp-1039340,Ca2Mg,"Ca, Mg",2,0.038685292499999635,Orthorhombic,63,Cmcm,0.0,True,True
mp-30483,CaZn,"Ca, Zn",2,0.0,Orthorhombic,63,Cmcm,0.0,False,True
mp-1183936,Eu2Mg,"Eu, Mg",2,0.03591973208333066,Orthorhombic,63,Cmcm,0.0,True,True
mp-30502,TmCd3,"Cd, Tm",2,0.0,Orthorhombic,63,Cmcm,0.0,False,True
mp-1094909,Mg2Cd,"Cd, Mg",2,0.0008533286111112037,Orthorhombic,63,Cmcm,0.0,True,True
mp-1066975,TmSi,"Si, Tm",2,0.0,Orthorhombic,63,Cmcm,0.0,False,True
mp-1078508,HoTe3,"Ho, Te",2,0.014365900937498566,Orthorhombic,63,Cmcm,0.0,False,True
mp-560809,SiO2,"O, Si",2,0.016937440694444916,Orthorhombic,63,Cmcm,5.4481,False,False
mp-30473,Ca3Ga5,"Ca, Ga",2,0.0,Orthorhombic,63,Cmcm,0.0,False,True
mp-538,CaAg,"Ag, Ca",2,0.0,Orthorhombic,63,Cmcm,0.0,False,True
mp-1094659,MgGa2,"Ga, Mg",2,0.09046674333333282,Orthorhombic,63,Cmcm,0.0,True,True
mp-1185774,Mg2Sc,"Mg, Sc",2,0.00539421333333312,Orthorhombic,63,Cmcm,0.0,True,True
mp-1078669,NpTe3,"Np, Te",2,0.0,Orthorhombic,63,Cmcm,0.0,False,True
mp-1186685,Pr2Mg,"Mg, Pr",2,0.02147959111111275,Orthorhombic,63,Cmcm,0.0,True,True
mp-977218,Li2Mg,"Li, Mg",2,0.01781477944444454,Orthorhombic,63,Cmcm,0.0,True,True
mp-605,ZrTe5,"Te, Zr",2,0.0,Orthorhombic,63,Cmcm,0.01920000000000055,False,False
mp-1205810,EuBr3,"Br, Eu",2,0.0,Orthorhombic,63,Cmcm,0.0,True,True
mp-30423,VAu2,"Au, V",2,0.028054426666670906,Orthorhombic,63,Cmcm,0.0,False,True
mp-1189963,Lu3Tl5,"Lu, Tl",2,0.019989458124998194,Orthorhombic,63,Cmcm,0.0,False,True
mp-1210753,Li2Al,"Al, Li",2,0.0,Orthorhombic,63,Cmcm,0.0,True,True
mp-11417,TbGa,"Ga, Tb",2,0.0,Orthorhombic,63,Cmcm,0.0,False,True
mp-630923,Ba3Pb5,"Ba, Pb",2,0.0,Orthorhombic,63,Cmcm,0.0,False,True
mp-2450,CaSn,"Ca, Sn",2,0.0,Orthorhombic,63,Cmcm,0.0,False,True
mp-1730,BaGe,"Ba, Ge",2,0.0,Orthorhombic,63,Cmcm,0.0,False,True
mp-378,ErSi,"Er, Si",2,0.0021414674999995498,Orthorhombic,63,Cmcm,0.0,False,True
mp-20136,BaPb,"Ba, Pb",2,0.0,Orthorhombic,63,Cmcm,0.0,False,True
mp-972521,SmGe,"Ge, Sm",2,0.0,Orthorhombic,63,Cmcm,0.0,False,True
mp-999193,SmAu,"Au, Sm",2,0.0,Orthorhombic,63,Cmcm,0.0,False,True
mp-999339,NdNi,"Nd, Ni",2,0.0,Orthorhombic,63,Cmcm,0.0,False,True
mp-1188954,Ba3Ge5,"Ba, Ge",2,0.0,Orthorhombic,63,Cmcm,0.0,False,True
mp-1067248,TiNi,"Ni, Ti",2,0.0020067824999996375,Orthorhombic,63,Cmcm,0.0,True,True
mp-570017,MgAu3,"Au, Mg",2,0.0,Orthorhombic,63,Cmcm,0.0,True,True
mp-1191644,H2S,"H, S",2,0.004653345000000364,Orthorhombic,73,Ibca,4.4350000000000005,True,False
mp-1217494,U11Se20,"Se, U",2,0.0,Tetragonal,75,P4,0.0,True,True
mp-850083,Fe4S5,"Fe, S",2,0.06074995222222235,Tetragonal,75,P4,0.0,True,True
mp-1217564,U11S20,"S, U",2,0.09811467774193972,Tetragonal,75,P4,0.0,True,True
mp-678,Mg54Ag17,"Ag, Mg",2,0.0005416258450710032,Orthorhombic,71,Immm,0.0,False,True
mp-11514,NbPt2,"Nb, Pt",2,0.0,Orthorhombic,71,Immm,0.0,False,True
mp-11549,VPd2,"Pd, V",2,0.0,Orthorhombic,71,Immm,0.0,False,True
mp-1103536,Y3Zn11,"Y, Zn",2,0.0,Orthorhombic,71,Immm,0.0,False,True
mp-1206884,KN2,"K, N",2,0.04054900744444545,Orthorhombic,71,Immm,0.0,True,True
mp-11028,K3Hg11,"Hg, K",2,0.008192996964282884,Orthorhombic,71,Immm,0.0,False,True
mp-889,Cr3B4,"B, Cr",2,0.02892977904762084,Orthorhombic,71,Immm,0.0,False,True
mp-981551,PrGe5,"Ge, Pr",2,0.07523445166666676,Orthorhombic,71,Immm,0.0,False,True
mp-1025170,Ti3B4,"B, Ti",2,0.0,Orthorhombic,71,Immm,0.0,False,True
mp-667368,SiO2,"O, Si",2,0.01209107489583161,Orthorhombic,71,Immm,5.5885,False,False
mp-10118,Mn3B4,"B, Mn",2,0.018044119047617713,Orthorhombic,71,Immm,0.0,False,True
mp-1219283,SrCd6,"Cd, Sr",2,0.0,Orthorhombic,71,Immm,0.0,True,True
mp-1017983,TiMo3,"Mo, Ti",2,0.0,Orthorhombic,71,Immm,0.0,True,True
mp-15078,SiO2,"O, Si",2,0.01758040759259316,Orthorhombic,71,Immm,5.6044,False,False
mp-1077156,NdGe5,"Ge, Nd",2,0.0782195995833348,Orthorhombic,71,Immm,0.0,False,True
mp-1191287,V6Si5,"Si, V",2,0.09922393015151698,Orthorhombic,71,Immm,0.0,False,True
mp-984703,CeGe5,"Ce, Ge",2,0.008901027916667914,Orthorhombic,71,Immm,0.0,False,True
mp-1219396,Sc2Te3,"Sc, Te",2,0.03564543999999881,Orthorhombic,71,Immm,0.012699999999999712,True,False
mp-1221195,NdCd6,"Cd, Nd",2,0.003708894702381338,Orthorhombic,71,Immm,0.0,True,True
mp-8700,K2Au3,"Au, K",2,0.0,Orthorhombic,71,Immm,0.0,False,True
mp-1213865,Ce3Al11,"Al, Ce",2,0.0,Orthorhombic,71,Immm,0.0,True,True
mp-30835,TaPd2,"Pd, Ta",2,0.0,Orthorhombic,71,Immm,0.0,False,True
mp-12108,VPt2,"Pt, V",2,0.0,Orthorhombic,71,Immm,0.0,False,True
mp-1103785,Pr3Al11,"Al, Pr",2,0.010916870357142727,Orthorhombic,71,Immm,0.0,False,True
mp-558071,RbS,"Rb, S",2,0.0018650299999998232,Orthorhombic,71,Immm,1.7115,False,False
mp-1192223,Nb6Sn5,"Nb, Sn",2,0.0,Orthorhombic,71,Immm,0.0,False,True
mp-1018129,Pt2W,"Pt, W",2,0.0,Orthorhombic,71,Immm,0.0,False,True
mp-568232,Ti6Sn5,"Sn, Ti",2,0.02521766727272734,Orthorhombic,71,Immm,0.0,False,True
mp-2382752,CaC2,"C, Ca",2,0.01625615166666705,Orthorhombic,71,Immm,2.3706,True,False
mp-1018151,NbPd2,"Nb, Pd",2,0.0,Orthorhombic,71,Immm,0.0,False,True
mp-1223019,LaC2,"C, La",2,0.05556377666666634,Orthorhombic,71,Immm,0.0,True,True
mp-16505,La3Al11,"Al, La",2,0.0,Orthorhombic,71,Immm,0.0,False,True
mp-1072419,SmGe5,"Ge, Sm",2,0.08561597361110973,Orthorhombic,71,Immm,0.0,False,True
mp-1232213,YSe2,"Se, Y",2,0.03365010640624888,Orthorhombic,71,Immm,0.12729999999999997,True,False
mp-1104934,Pr3Zn11,"Pr, Zn",2,0.002152774665179713,Orthorhombic,71,Immm,0.0,False,True
mp-666,UTe2,"Te, U",2,0.0,Orthorhombic,71,Immm,0.0,False,True
mp-1104395,Sm3Al11,"Al, Sm",2,0.0186152617857136,Orthorhombic,71,Immm,0.0,False,True
mp-1102706,Eu3Ga8,"Eu, Ga",2,0.005399372727271867,Orthorhombic,71,Immm,0.0,False,True
mp-542428,Ba11Sb10,"Ba, Sb",2,0.001674641853740333,Orthorhombic,71,Immm,0.0,False,True
mp-1219961,SmCd6,"Cd, Sm",2,0.015050067586581006,Orthorhombic,71,Immm,0.0,True,True
mp-1227006,DyCd6,"Cd, Dy",2,0.005668959696970788,Orthorhombic,71,Immm,0.0,True,True
mp-11531,VNi2,"Ni, V",2,0.0,Orthorhombic,71,Immm,0.0,False,True
mp-1219395,Sc2Se3,"Sc, Se",2,0.02668611250000197,Orthorhombic,71,Immm,0.6246999999999998,True,False
mp-1103818,Nd3Zn11,"Nd, Zn",2,0.0,Orthorhombic,71,Immm,0.0,False,True
mp-1010,MnB4,"B, Mn",2,0.012702824000001556,Orthorhombic,71,Immm,0.0,False,True
mp-1378,LiC,"C, Li",2,0.01581632847222192,Orthorhombic,71,Immm,3.2727,False,False
mp-862292,Ce3Zn11,"Ce, Zn",2,0.0,Orthorhombic,71,Immm,0.0,False,True
mp-11814,Rb2Au3,"Au, Rb",2,0.0,Orthorhombic,71,Immm,0.0,False,True
mp-1206704,MoPd2,"Mo, Pd",2,0.0,Orthorhombic,71,Immm,0.0,True,True
mp-1219746,ScZn6,"Sc, Zn",2,0.0,Orthorhombic,71,Immm,0.0,True,True
mp-1229298,CaCd6,"Ca, Cd",2,0.0,Orthorhombic,71,Immm,0.0,True,True
mp-569270,V3B4,"B, V",2,0.0,Orthorhombic,71,Immm,0.0,False,True
mp-570777,SrSi,"Si, Sr",2,0.04977196950000007,Orthorhombic,71,Immm,0.0,False,True
mp-1227922,ErCd6,"Cd, Er",2,0.008840622023809308,Orthorhombic,71,Immm,0.0,True,True
mp-952,MoPt2,"Mo, Pt",2,0.0,Orthorhombic,71,Immm,0.0,False,True
mp-10255,Nb3B4,"B, Nb",2,0.0,Orthorhombic,71,Immm,0.0,False,True
mp-1061861,TiPd2,"Pd, Ti",2,0.0,Orthorhombic,71,Immm,0.0,True,True
mp-579518,Dy5Sn11,"Dy, Sn",2,0.0,Orthorhombic,71,Immm,0.0,False,True
mp-567822,Sr3In11,"In, Sr",2,0.0,Orthorhombic,71,Immm,0.0,False,True
mp-1094288,Sr2Mg,"Mg, Sr",2,0.018617934999999752,Orthorhombic,71,Immm,0.0,True,True
mp-1222226,PrCd6,"Cd, Pr",2,0.006065552785088357,Orthorhombic,71,Immm,0.0,True,True
mp-1225485,HoCd6,"Cd, Ho",2,0.006850842619048558,Orthorhombic,71,Immm,0.0,True,True
mp-27710,CrB4,"B, Cr",2,0.008563825999999608,Orthorhombic,71,Immm,0.13060000000000027,False,False
mp-569529,Ba2Bi3,"Ba, Bi",2,0.0,Orthorhombic,71,Immm,0.0,False,True
mp-1104100,Nd3Al11,"Al, Nd",2,0.012167140000000742,Orthorhombic,71,Immm,0.0,False,True
mp-29266,CsS,"Cs, S",2,0.0,Orthorhombic,71,Immm,1.7260000000000002,False,False
mp-1207654,Zr54Os17,"Os, Zr",2,0.00939077934859256,Orthorhombic,71,Immm,0.0,True,True
mp-1104161,Dy3Zn11,"Dy, Zn",2,0.0059207134210526036,Orthorhombic,71,Immm,0.0,False,True
mp-2479851,Mg3Cu,"Cu, Mg",2,0.06791039062500026,Orthorhombic,71,Immm,0.0,True,True
mp-1178808,VIr,"Ir, V",2,0.016097583125002757,Orthorhombic,71,Immm,0.0,True,True
mp-1104325,Tb3Zn11,"Tb, Zn",2,0.004892664812030656,Orthorhombic,71,Immm,0.0,False,True
mp-10142,Ta3B4,"B, Ta",2,0.0,Orthorhombic,71,Immm,0.0,False,True
mp-12611,Ca3Ga8,"Ca, Ga",2,0.0011477618181832128,Orthorhombic,71,Immm,0.0,False,True
mp-29807,Hf27P16,"Hf, P",2,0.018904862848842185,Orthorhombic,71,Immm,0.0,False,True
mp-568048,Hf54Os17,"Hf, Os",2,0.020451442816899146,Orthorhombic,71,Immm,0.0,False,True
mp-1103573,Sm3Zn11,"Sm, Zn",2,0.0048522322556388,Orthorhombic,71,Immm,0.0,False,True
mp-784630,Ni2Mo,"Mo, Ni",2,0.007272286666665906,Orthorhombic,71,Immm,0.0,True,True
mp-1019239,PdN2,"N, Pd",2,0.09607747333333094,Orthorhombic,71,Immm,0.0,True,True
mp-7895,Rb2O2,"O, Rb",2,0.0,Orthorhombic,71,Immm,1.7600000000000002,False,False
mp-1077779,ErSe2,"Er, Se",2,0.06380014890624963,Orthorhombic,71,Immm,0.0,False,True
mp-1071473,TbGe5,"Ge, Tb",2,0.09777429833333429,Orthorhombic,71,Immm,0.0,False,True
mp-7896,Cs2O2,"Cs, O",2,0.0,Orthorhombic,71,Immm,1.6496,False,False
mp-574085,Dy5Sn13,"Dy, Sn",2,0.00424264555555709,Orthorhombic,71,Immm,0.0,False,True
mp-29783,B5H9,"B, H",2,0.019773636241883885,Tetragonal,76,P4_1,5.9591,False,False
mp-541113,Cs3P7,"Cs, P",2,0.0,Tetragonal,76,P4_1,2.3466000000000005,False,False
mp-721582,H2S,"H, S",2,0.013522283750000419,Tetragonal,77,P4_2,4.0299,False,False
mp-1338697,B5H9,"B, H",2,0.01923477892045522,Tetragonal,78,P4_3,5.964700000000001,True,False
mp-557933,SiO2,"O, Si",2,0.013428656111113213,Orthorhombic,74,Imma,5.5245,False,False
mp-1071835,DyCu2,"Cu, Dy",2,0.0,Orthorhombic,74,Imma,0.0,False,True
mp-1025122,LuCu2,"Cu, Lu",2,0.0,Orthorhombic,74,Imma,0.0,False,True
mp-1080762,NpGa4,"Ga, Np",2,0.0,Orthorhombic,74,Imma,0.0,False,True
mp-567258,LaZn2,"La, Zn",2,0.0,Orthorhombic,74,Imma,0.0,False,True
mp-600000,SiO2,"O, Si",2,0.0185777247222223,Orthorhombic,74,Imma,5.4115,True,False
mp-1436,EuAg2,"Ag, Eu",2,0.0,Orthorhombic,74,Imma,0.0,False,True
mp-600037,SiO2,"O, Si",2,0.022893965555557116,Orthorhombic,74,Imma,5.4426,False,False
mp-600031,SiO2,"O, Si",2,0.016952026722222513,Orthorhombic,74,Imma,5.8332999999999995,True,False
mp-1077183,PrGe2,"Ge, Pr",2,0.04423217666666801,Orthorhombic,74,Imma,0.0,False,True
mp-1072619,PrAg2,"Ag, Pr",2,0.0,Orthorhombic,74,Imma,0.0,False,True
mp-1077933,GdCu2,"Cu, Gd",2,0.0,Orthorhombic,74,Imma,0.0,False,True
mp-558326,SiO2,"O, Si",2,0.01108713018518337,Orthorhombic,74,Imma,5.587,False,False
mp-30435,BaZn2,"Ba, Zn",2,0.0,Orthorhombic,74,Imma,0.0,False,True
mp-9827,RbHg2,"Hg, Rb",2,0.0,Orthorhombic,74,Imma,0.0,False,True
mp-13270,CaAg2,"Ag, Ca",2,0.0,Orthorhombic,74,Imma,0.0,False,True
mp-582681,CuAu,"Au, Cu",2,0.009104014499999646,Orthorhombic,74,Imma,0.0,False,True
mp-434,SrAu2,"Au, Sr",2,0.0,Orthorhombic,74,Imma,0.0,False,True
mp-569406,TmZn2,"Tm, Zn",2,0.0,Orthorhombic,74,Imma,0.0,False,True
mp-1077154,SmCu2,"Cu, Sm",2,0.0,Orthorhombic,74,Imma,0.0,False,True
mp-16520,NpAl4,"Al, Np",2,0.0,Orthorhombic,74,Imma,0.0,False,True
mp-11412,ScGa2,"Ga, Sc",2,0.0,Orthorhombic,74,Imma,0.0,False,True
mp-1025096,ErZn2,"Er, Zn",2,0.0,Orthorhombic,74,Imma,0.0,False,True
mp-1725,CaZn2,"Ca, Zn",2,0.0,Orthorhombic,74,Imma,0.0,False,True
mp-1444,CaCd2,"Ca, Cd",2,0.0,Orthorhombic,74,Imma,0.0,False,True
mp-1101884,CaNi5,"Ca, Ni",2,0.002942592916666875,Orthorhombic,74,Imma,0.0,True,True
mp-30487,EuCd2,"Cd, Eu",2,0.0,Orthorhombic,74,Imma,0.0,False,True
mp-1076988,GdZn2,"Gd, Zn",2,0.0,Orthorhombic,74,Imma,0.0,False,True
mp-759957,V2F7,"F, V",2,0.0,Orthorhombic,74,Imma,1.5088,True,False
mp-22141,BaIn2,"Ba, In",2,0.0,Orthorhombic,74,Imma,0.0,False,True
mp-2698,YCu2,"Cu, Y",2,0.0,Orthorhombic,74,Imma,0.0,False,True
mp-1205309,LiB,"B, Li",2,0.07088204500000028,Orthorhombic,74,Imma,0.38139999999999996,True,False
mp-31770,Fe3O4,"Fe, O",2,0.017264410714288303,Orthorhombic,74,Imma,0.0,False,True
mp-1095284,BaGe5,"Ba, Ge",2,0.05730654062500218,Orthorhombic,74,Imma,0.0,False,True
mp-1077032,CeZn2,"Ce, Zn",2,0.005721086666667929,Orthorhombic,74,Imma,0.0,False,True
mp-1527,TbCu2,"Cu, Tb",2,0.0,Orthorhombic,74,Imma,0.0,False,True
mp-30800,NdZn2,"Nd, Zn",2,0.0,Orthorhombic,74,Imma,0.0,False,True
mp-1072087,LaAu2,"Au, La",2,0.0,Orthorhombic,74,Imma,0.0,False,True
mp-567695,UMn2,"Mn, U",2,0.0,Orthorhombic,74,Imma,0.0,False,True
mp-1071904,PrCu2,"Cu, Pr",2,0.0,Orthorhombic,74,Imma,0.0,False,True
mp-1956,TmGa2,"Ga, Tm",2,0.0,Orthorhombic,74,Imma,0.0,False,True
mp-1079897,SmAl4,"Al, Sm",2,0.018592352999997175,Orthorhombic,74,Imma,0.0,False,True
mp-962,SmZn2,"Sm, Zn",2,0.0,Orthorhombic,74,Imma,0.0,False,True
mp-2041,HoZn2,"Ho, Zn",2,0.0,Orthorhombic,74,Imma,0.0,False,True
mp-574379,CsHg2,"Cs, Hg",2,0.0,Orthorhombic,74,Imma,0.0,False,True
mp-1071698,EuAu2,"Au, Eu",2,0.0,Orthorhombic,74,Imma,0.0,False,True
mp-1041565,TiO2,"O, Ti",2,0.03723069250000144,Orthorhombic,74,Imma,1.8094000000000001,True,False
mp-2315,NaB15,"B, Na",2,0.0,Orthorhombic,74,Imma,0.0,False,True
mp-574122,UAl4,"Al, U",2,0.0015938559999959523,Orthorhombic,74,Imma,0.0,False,True
mp-600057,SiO2,"O, Si",2,0.024472877638890722,Orthorhombic,74,Imma,5.7215,True,False
mp-1024948,LuZn2,"Lu, Zn",2,0.0,Orthorhombic,74,Imma,0.0,False,True
mp-22317,EuGa2,"Eu, Ga",2,0.004437299999999311,Orthorhombic,74,Imma,0.0,False,True
mp-569426,SrZn2,"Sr, Zn",2,0.0,Orthorhombic,74,Imma,0.0,False,True
mp-569128,SiB3,"B, Si",2,0.0,Orthorhombic,74,Imma,1.4080000000000004,False,False
mp-30415,PrAu2,"Au, Pr",2,0.0,Orthorhombic,74,Imma,0.0,False,True
mp-11266,BaCd2,"Ba, Cd",2,0.0,Orthorhombic,74,Imma,0.0,False,True
mp-11852,NdCu2,"Cu, Nd",2,0.0,Orthorhombic,74,Imma,0.0,False,True
mp-443,CaAu2,"Au, Ca",2,0.0,Orthorhombic,74,Imma,0.0,False,True
mp-1044095,Sb3O7,"O, Sb",2,0.08572938487500181,Orthorhombic,74,Imma,0.0,True,True
mp-1385,CeZn2,"Ce, Zn",2,0.0,Orthorhombic,74,Imma,0.0,False,True
mp-2801,CeCu2,"Ce, Cu",2,0.0,Orthorhombic,74,Imma,0.0,False,True
mp-560336,SiO2,"O, Si",2,0.012782281249998917,Orthorhombic,74,Imma,5.5874,False,False
mp-510173,PuGa4,"Ga, Pu",2,0.0028488119999998673,Orthorhombic,74,Imma,0.0,False,True
mp-1077210,LuGa2,"Ga, Lu",2,0.0,Orthorhombic,74,Imma,0.0,False,True
mp-677,SrCd2,"Cd, Sr",2,0.0,Orthorhombic,74,Imma,0.0,False,True
mp-681,EuZn2,"Eu, Zn",2,0.0,Orthorhombic,74,Imma,0.0,False,True
mp-30584,HoCu2,"Cu, Ho",2,0.0,Orthorhombic,74,Imma,0.0,False,True
mp-1071732,EuCu2,"Cu, Eu",2,0.0,Orthorhombic,74,Imma,0.0,False,True
mp-30717,KHg2,"Hg, K",2,0.0,Orthorhombic,74,Imma,0.0,False,True
mp-1077209,TmCu2,"Cu, Tm",2,0.0,Orthorhombic,74,Imma,0.0,False,True
mp-1072856,PrZn2,"Pr, Zn",2,0.0,Orthorhombic,74,Imma,0.0,False,True
mp-30356,SrAg2,"Ag, Sr",2,0.0,Orthorhombic,74,Imma,0.0,False,True
mp-2338,TbZn2,"Tb, Zn",2,0.0,Orthorhombic,74,Imma,0.0,False,True
mp-1271784,Co3O4,"Co, O",2,0.03038171071428586,Orthorhombic,74,Imma,0.0,True,True
mp-22318,SrAl2,"Al, Sr",2,0.0,Orthorhombic,74,Imma,0.0,False,True
mp-1077322,BaAg2,"Ag, Ba",2,0.0031732133333344237,Orthorhombic,74,Imma,0.0,False,True
mp-1219514,Sb3O7,"O, Sb",2,0.05219418737500092,Orthorhombic,74,Imma,0.4975999999999994,True,False
mp-1024991,ErCu2,"Cu, Er",2,0.0,Orthorhombic,74,Imma,0.0,False,True
mp-1071422,CeAg2,"Ag, Ce",2,0.0050989499999998245,Orthorhombic,74,Imma,0.0,False,True
mp-1079618,TbAl4,"Al, Tb",2,0.014643189999997475,Orthorhombic,74,Imma,0.0,False,True
mp-1041584,SnO2,"O, Sn",2,0.00036430583333313393,Orthorhombic,74,Imma,0.6487000000000007,True,False
mp-570093,DyZn2,"Dy, Zn",2,0.0,Orthorhombic,74,Imma,0.0,False,True
mp-22282,LaIn2,"In, La",2,0.0,Orthorhombic,74,Imma,0.0,False,True
mp-1072737,NdAg2,"Ag, Nd",2,0.0,Orthorhombic,74,Imma,0.0,False,True
mp-1071274,HfV2,"Hf, V",2,0.03422608833333385,Orthorhombic,74,Imma,0.0,True,True
mp-1041597,BiO2,"Bi, O",2,0.02072013333333267,Orthorhombic,74,Imma,0.0,True,True
mp-542776,PuAl4,"Al, Pu",2,0.0,Orthorhombic,74,Imma,0.0,False,True
mp-978275,MgB7,"B, Mg",2,0.0,Orthorhombic,74,Imma,1.4592,False,False
mp-568526,SrHg2,"Hg, Sr",2,0.0,Orthorhombic,74,Imma,0.0,False,True
mp-1025059,LaAg2,"Ag, La",2,0.0,Orthorhombic,74,Imma,0.0,False,True
mp-1185380,LiMg,"Li, Mg",2,0.0,Orthorhombic,74,Imma,0.0,True,True
mp-1206322,CeAg2,"Ag, Ce",2,0.0,Orthorhombic,74,Imma,0.0,False,True
mp-950217,BiI4,"Bi, I",2,0.03964721274999938,Orthorhombic,74,Imma,0.46820000000000006,True,False
mp-27257,PBr3,"Br, P",2,0.0,Orthorhombic,62,Pnma,3.3373999999999997,False,False
mp-2242,GeS,"Ge, S",2,0.0,Orthorhombic,62,Pnma,1.2375999999999996,False,False
mp-1188870,PrZn3,"Pr, Zn",2,0.0020210922656258568,Orthorhombic,62,Pnma,0.0,False,True
mp-21691,La5Pb4,"La, Pb",2,0.0,Orthorhombic,62,Pnma,0.0,False,True
mp-654223,Mn11Ge8,"Ge, Mn",2,0.0184853894736845,Orthorhombic,62,Pnma,0.0,False,True
mp-1200767,Sc3Ga5,"Ga, Sc",2,0.0,Orthorhombic,62,Pnma,0.0,False,True
mp-1079172,PbSe,"Pb, Se",2,0.05258041249999934,Orthorhombic,62,Pnma,1.0663,False,False
mp-1087502,HoPd,"Ho, Pd",2,0.0,Orthorhombic,62,Pnma,0.0,False,True
mp-1105966,Gd2Te3,"Gd, Te",2,0.0,Orthorhombic,62,Pnma,0.11299999999999955,False,False
mp-600216,U2Se3,"Se, U",2,0.0,Orthorhombic,62,Pnma,0.0,False,True
mp-571651,TiSe,"Se, Ti",2,0.013489690625000605,Orthorhombic,62,Pnma,0.0,True,True
mp-7384,SmF3,"F, Sm",2,0.0,Orthorhombic,62,Pnma,7.7298,False,False
mp-30355,SrAg,"Ag, Sr",2,0.0016014802499988434,Orthorhombic,62,Pnma,0.0,False,True
mp-1209109,RhF6,"F, Rh",2,0.0,Orthorhombic,62,Pnma,0.5939999999999999,True,False
mp-1212365,Li12Ge7,"Ge, Li",2,0.006842805197368573,Orthorhombic,62,Pnma,0.0,True,True
mp-1403,Sm2S3,"S, Sm",2,0.0,Orthorhombic,62,Pnma,0.7441,False,False
mp-15650,AsRu,"As, Ru",2,0.03797844624999769,Orthorhombic,62,Pnma,0.0,False,True
mp-22239,GeRh,"Ge, Rh",2,0.0,Orthorhombic,62,Pnma,0.0,False,True
mp-1190267,Hf3As2,"As, Hf",2,0.0,Orthorhombic,62,Pnma,0.0,False,True
mp-1202229,Sm5Bi3,"Bi, Sm",2,0.024854990937502208,Orthorhombic,62,Pnma,0.0,False,True
mp-1197019,Np3Se5,"Np, Se",2,0.0,Orthorhombic,62,Pnma,0.0,False,True
mp-1106231,SmZn3,"Sm, Zn",2,0.0,Orthorhombic,62,Pnma,0.0,False,True
mp-27456,BaBr2,"Ba, Br",2,0.0,Orthorhombic,62,Pnma,4.3731,False,False
mp-1079091,PrCu,"Cu, Pr",2,0.0,Orthorhombic,62,Pnma,0.0,False,True
mp-700,GeSe,"Ge, Se",2,0.0,Orthorhombic,62,Pnma,0.8988,False,False
mp-1095519,Eu2In,"Eu, In",2,0.0,Orthorhombic,62,Pnma,0.0,False,True
mp-1189196,BiI3,"Bi, I",2,0.03417816500000015,Orthorhombic,62,Pnma,2.7889,True,False
mp-568284,SrI2,"I, Sr",2,0.0,Orthorhombic,62,Pnma,3.8019999999999996,False,False
mp-12724,SrZn,"Sr, Zn",2,0.0,Orthorhombic,62,Pnma,0.0,False,True
mp-1193079,NdCu6,"Cu, Nd",2,0.010661583214286452,Orthorhombic,62,Pnma,0.0,False,True
mp-1196496,Ho5Bi3,"Bi, Ho",2,0.0036806531249951036,Orthorhombic,62,Pnma,0.0,False,True
mp-1189562,Lu3Ir,"Ir, Lu",2,0.0,Orthorhombic,62,Pnma,0.0,False,True
mp-1189887,Dy3Os,"Dy, Os",2,0.0,Orthorhombic,62,Pnma,0.0,False,True
mp-427,FeAs,"As, Fe",2,0.0,Orthorhombic,62,Pnma,0.0,False,True
mp-1205297,Tb2S3,"S, Tb",2,0.005354568999997866,Orthorhombic,62,Pnma,0.7330999999999994,False,False
mp-27412,V4O9,"O, V",2,0.04474085923077098,Orthorhombic,62,Pnma,0.40510000000000024,False,False
mp-1197290,Tb3Ga5,"Ga, Tb",2,0.026487536875002604,Orthorhombic,62,Pnma,0.0,False,True