material_id,formula,elements,num_elements,energy_above_hull,crystal_system,spacegroup_number,spacegroup_symbol,band_gap,theoretical,is_metal
mp-2815,MoS2,"Mo, S",2,0.0016927283333316723,Hexagonal,194,P6_3/mmc,1.4648999999999996,False,False
mp-979339,Sm3Cd,"Cd, Sm",2,0.06768366499999923,Hexagonal,194,P6_3/mmc,0.0,True,True
mp-1195842,Lu2Fe17,"Fe, Lu",2,0.02721032684210556,Hexagonal,194,P6_3/mmc,0.0,False,True
mp-983235,Tl3Pb,"Pb, Tl",2,0.011133102499996994,Hexagonal,194,P6_3/mmc,0.0,True,True
mp-638079,Gd2In,"Gd, In",2,0.0,Hexagonal,194,P6_3/mmc,0.0,False,True
mp-1183193,Ag3As,"Ag, As",2,0.08839697750000042,Hexagonal,194,P6_3/mmc,0.0,True,True
mp-977207,Li2Mg,"Li, Mg",2,0.019617506111111016,Hexagonal,194,P6_3/mmc,0.0,True,True
mp-865193,Co3Pt,"Co, Pt",2,0.0,Hexagonal,194,P6_3/mmc,0.0,True,True
mp-1187635,Tm3Al,"Al, Tm",2,0.0027850781249973977,Hexagonal,194,P6_3/mmc,0.0,True,True
mp-1184298,FeRe3,"Fe, Re",2,0.014438050624995924,Hexagonal,194,P6_3/mmc,0.0,True,True
mp-1184396,Eu3Er,"Er, Eu",2,0.08187846250000064,Hexagonal,194,P6_3/mmc,0.0,True,True
mp-974341,RuRh3,"Rh, Ru",2,0.04545359333333465,Hexagonal,194,P6_3/mmc,0.0,True,True
mp-1184933,In3Hg,"Hg, In",2,0.03313379249999926,Hexagonal,194,P6_3/mmc,0.0,True,True
mp-867141,ReOs3,"Os, Re",2,0.0,Hexagonal,194,P6_3/mmc,0.0,True,True
mp-1065394,MoN,"Mo, N",2,0.013843436249999286,Hexagonal,194,P6_3/mmc,0.0,False,True
mp-7897,K3P,"K, P",2,0.0,Hexagonal,194,P6_3/mmc,0.2117,False,False
mp-1188285,HoGa3,"Ga, Ho",2,0.012026488124998735,Hexagonal,194,P6_3/mmc,0.0,False,True
mp-569544,ZrTe,"Te, Zr",2,0.08599150499999908,Hexagonal,194,P6_3/mmc,0.0,False,True
mp-1183817,DyMg3,"Dy, Mg",2,0.013070726249999609,Hexagonal,194,P6_3/mmc,0.0,True,True
mp-1186668,PmTm3,"Pm, Tm",2,0.0,Hexagonal,194,P6_3/mmc,0.0,True,True
mp-1079267,LiHg3,"Hg, Li",2,0.0,Hexagonal,194,P6_3/mmc,0.0,False,True
mp-1183849,CeI3,"Ce, I",2,0.07597342500000082,Hexagonal,194,P6_3/mmc,0.04620000000000024,True,False
mp-1102559,NbSe2,"Nb, Se",2,0.02412268999999867,Hexagonal,194,P6_3/mmc,0.0,False,True
mp-862332,LaHg3,"Hg, La",2,0.0,Hexagonal,194,P6_3/mmc,0.0,False,True
mp-867815,AcGa3,"Ac, Ga",2,0.0,Hexagonal,194,P6_3/mmc,0.0,True,True
mp-1018809,MoS2,"Mo, S",2,0.002389239999999404,Hexagonal,194,P6_3/mmc,1.3361,False,False
mp-864657,HoI3,"Ho, I",2,0.0,Hexagonal,194,P6_3/mmc,2.2173,True,False
mp-972220,TiPt3,"Pt, Ti",2,0.01377564321428082,Hexagonal,194,P6_3/mmc,0.0,True,True
mp-31348,Sc2In,"In, Sc",2,0.0,Hexagonal,194,P6_3/mmc,0.0,False,True
mp-1186991,ScI3,"I, Sc",2,0.0,Hexagonal,194,P6_3/mmc,1.6942,True,False
mp-1524551,Zn3N2,"N, Zn",2,0.014135124999999249,Hexagonal,194,P6_3/mmc,0.0028000000000001357,True,False
mp-10656,TmTe,"Te, Tm",2,0.06601953250000037,Hexagonal,194,P6_3/mmc,0.0,True,True
mp-1186561,PmCd3,"Cd, Pm",2,0.00035939999999712313,Hexagonal,194,P6_3/mmc,0.0,True,True
mp-1185525,Lu3Th,"Lu, Th",2,0.022321988750007904,Hexagonal,194,P6_3/mmc,0.0,True,True
mp-6977,Be3N2,"Be, N",2,0.03151386449999993,Hexagonal,194,P6_3/mmc,3.3283999999999994,False,False
mp-867792,ReIr3,"Ir, Re",2,0.0,Hexagonal,194,P6_3/mmc,0.0,True,True
mp-1183099,Ac3Tb,"Ac, Tb",2,0.06517612687500218,Hexagonal,194,P6_3/mmc,0.0,True,True
mp-1187682,Tm3Th,"Th, Tm",2,0.03158517374999548,Hexagonal,194,P6_3/mmc,0.0,True,True
mp-1102233,TbTc2,"Tb, Tc",2,0.0,Hexagonal,194,P6_3/mmc,0.0,False,True
mp-1101953,HoOs2,"Ho, Os",2,0.0,Hexagonal,194,P6_3/mmc,0.0,False,True
mp-864809,AcZn3,"Ac, Zn",2,0.0,Hexagonal,194,P6_3/mmc,0.0,True,True
mp-864931,MgCo2,"Co, Mg",2,0.018079217499996858,Hexagonal,194,P6_3/mmc,0.0,False,True
mp-1102143,ErRe2,"Er, Re",2,0.0,Hexagonal,194,P6_3/mmc,0.0,False,True
mp-581655,Pr13Cd58,"Cd, Pr",2,0.005447153165615504,Hexagonal,194,P6_3/mmc,0.0,False,True
mp-1183114,AcCu3,"Ac, Cu",2,0.0,Hexagonal,194,P6_3/mmc,0.0,True,True
mp-865685,Eu3P,"Eu, P",2,0.08647491624999759,Hexagonal,194,P6_3/mmc,0.0,True,True
mp-30786,TmMn2,"Mn, Tm",2,0.033991375615940456,Hexagonal,194,P6_3/mmc,0.0,False,True
mp-569630,NdOs2,"Nd, Os",2,0.0,Hexagonal,194,P6_3/mmc,0.0,False,True
mp-976797,Pm3Sc,"Pm, Sc",2,0.039683051874998654,Hexagonal,194,P6_3/mmc,0.0,True,True
mp-1201145,Er2Al17,"Al, Er",2,0.09449524605263271,Hexagonal,194,P6_3/mmc,0.0,False,True
mp-863682,PmGa3,"Ga, Pm",2,0.0,Hexagonal,194,P6_3/mmc,0.0,True,True
mp-862732,PmZn3,"Pm, Zn",2,0.0,Hexagonal,194,P6_3/mmc,0.0,True,True
mp-1187022,SmHo3,"Ho, Sm",2,0.0,Hexagonal,194,P6_3/mmc,0.0,True,True
mp-22211,V3Sn,"Sn, V",2,0.03979231499999969,Hexagonal,194,P6_3/mmc,0.0,False,True
mp-1183259,AcNd3,"Ac, Nd",2,0.037042963749996716,Hexagonal,194,P6_3/mmc,0.0,True,True
mp-1184184,Er3In,"Er, In",2,0.012419810416666621,Hexagonal,194,P6_3/mmc,0.0,True,True
mp-867297,AcIn3,"Ac, In",2,0.0,Hexagonal,194,P6_3/mmc,0.0,True,True
mp-973689,Ho3Lu,"Ho, Lu",2,0.002323482083333772,Hexagonal,194,P6_3/mmc,0.0,True,True
mp-1187358,TbNd3,"Nd, Tb",2,0.02501074062500308,Hexagonal,194,P6_3/mmc,0.0,True,True
mp-1102236,TmFe2,"Fe, Tm",2,0.024596497500000147,Hexagonal,194,P6_3/mmc,0.0,False,True
mp-1186281,Nd3Sm,"Nd, Sm",2,0.027157458125000034,Hexagonal,194,P6_3/mmc,0.0,True,True
mp-1192425,YCo3,"Co, Y",2,0.04071238016025536,Hexagonal,194,P6_3/mmc,0.0,False,True
mp-865910,CdAg3,"Ag, Cd",2,0.003238438749999517,Hexagonal,194,P6_3/mmc,0.0,True,True
mp-862289,AcHg3,"Ac, Hg",2,0.0,Hexagonal,194,P6_3/mmc,0.0,True,True
mp-1201333,Pr2Ni7,"Ni, Pr",2,0.0,Hexagonal,194,P6_3/mmc,0.0,False,True
mp-973983,NiPd3,"Ni, Pd",2,0.06770055249999984,Hexagonal,194,P6_3/mmc,0.0,True,True
mp-862851,PaI3,"I, Pa",2,0.0,Hexagonal,194,P6_3/mmc,0.0,True,True
mp-1186930,SbPd3,"Pd, Sb",2,0.0709308191071436,Hexagonal,194,P6_3/mmc,0.0,True,True
mp-1186527,Pm3Nd,"Nd, Pm",2,0.025454148749997074,Hexagonal,194,P6_3/mmc,0.0,True,True
mp-30752,La2Mg17,"La, Mg",2,0.01195087105263104,Hexagonal,194,P6_3/mmc,0.0,False,True
mp-971788,VRu3,"Ru, V",2,0.0356111962499952,Hexagonal,194,P6_3/mmc,0.0,True,True
mp-30739,Mg3Ir,"Ir, Mg",2,0.014463810416667666,Hexagonal,194,P6_3/mmc,0.0,False,True
mp-1094970,Mg3Al,"Al, Mg",2,0.03555407552083345,Hexagonal,194,P6_3/mmc,0.0,True,True
mp-570953,HoGa3,"Ga, Ho",2,0.020661959166665245,Hexagonal,194,P6_3/mmc,0.0,False,True
mp-1191285,NbNi2,"Nb, Ni",2,0.08037017744444608,Hexagonal,194,P6_3/mmc,0.0,True,True
mp-2432,CaMg2,"Ca, Mg",2,0.0,Hexagonal,194,P6_3/mmc,0.0,False,True
mp-977216,NpAl3,"Al, Np",2,0.018425252500001932,Hexagonal,194,P6_3/mmc,0.0,True,True
mp-1191422,TiCo2,"Co, Ti",2,0.051720578333334544,Hexagonal,194,P6_3/mmc,0.0,False,True
mp-1185166,LaSm3,"La, Sm",2,0.029036859999997944,Hexagonal,194,P6_3/mmc,0.0,True,True
mp-1186184,NaSr3,"Na, Sr",2,0.06914578374999714,Hexagonal,194,P6_3/mmc,0.0,True,True
mp-2507,GaS,"Ga, S",2,0.0,Hexagonal,194,P6_3/mmc,2.0036,False,False
mp-568186,YRu2,"Ru, Y",2,0.0,Hexagonal,194,P6_3/mmc,0.0,False,True
mp-864621,NdGa3,"Ga, Nd",2,0.0,Hexagonal,194,P6_3/mmc,0.0,True,True
mp-1184182,ErBi3,"Bi, Er",2,0.08512132999999888,Hexagonal,194,P6_3/mmc,0.0,True,True
mp-21030,Ti3Sn,"Sn, Ti",2,0.0026197112500021547,Hexagonal,194,P6_3/mmc,0.0,False,True
mp-569979,ZrRu2,"Ru, Zr",2,0.08155004833333024,Hexagonal,194,P6_3/mmc,0.0,False,True
mp-862844,PaAl3,"Al, Pa",2,0.0,Hexagonal,194,P6_3/mmc,0.0,True,True
mp-1183098,Ac3Tm,"Ac, Tm",2,0.07346687020833542,Hexagonal,194,P6_3/mmc,0.0,True,True
mp-1095487,LuTc2,"Lu, Tc",2,0.0,Hexagonal,194,P6_3/mmc,0.0,False,True
mp-864662,HoCl3,"Cl, Ho",2,0.0,Hexagonal,194,P6_3/mmc,3.7011,True,False
mp-867356,TcRu3,"Ru, Tc",2,0.0,Hexagonal,194,P6_3/mmc,0.0,True,True
mp-1186548,PmBi3,"Bi, Pm",2,0.0206689662499997,Hexagonal,194,P6_3/mmc,0.0,True,True
mp-1192350,NbFe2,"Fe, Nb",2,0.005451637500000217,Hexagonal,194,P6_3/mmc,0.0,True,True
mp-1194635,Tb2Fe17,"Fe, Tb",2,0.018729225877194722,Hexagonal,194,P6_3/mmc,0.0,False,True
mp-863677,PmCu3,"Cu, Pm",2,0.0,Hexagonal,194,P6_3/mmc,0.0,True,True
mp-569866,Cs6K7,"Cs, K",2,0.004067151250001899,Hexagonal,194,P6_3/mmc,0.0,False,True
mp-1183205,Ag3Au,"Ag, Au",2,0.011570367499999179,Hexagonal,194,P6_3/mmc,0.0,True,True
mp-1183306,AlRh3,"Al, Rh",2,0.08391756125000072,Hexagonal,194,P6_3/mmc,0.0,True,True
mp-985305,Ac3In,"Ac, In",2,0.0,Hexagonal,194,P6_3/mmc,0.0,True,True
mp-865596,YLu3,"Lu, Y",2,0.0,Hexagonal,194,P6_3/mmc,0.0,True,True
mp-1186377,OsRh3,"Os, Rh",2,0.08876238875000197,Hexagonal,194,P6_3/mmc,0.0,True,True
mp-1185291,Li3Zn,"Li, Zn",2,0.032175977916666376,Hexagonal,194,P6_3/mmc,0.0,True,True
mp-9954,HfAs,"As, Hf",2,0.0,Hexagonal,194,P6_3/mmc,0.0,False,True
mp-1187514,Ti3Nb,"Nb, Ti",2,0.07785404749999891,Hexagonal,194,P6_3/mmc,0.0,True,True
mp-862865,PaZn3,"Pa, Zn",2,0.0,Hexagonal,194,P6_3/mmc,0.0,True,True
mp-1187993,Zn3Co,"Co, Zn",2,0.06749210465909172,Hexagonal,194,P6_3/mmc,0.0,True,True
mp-864982,DyBr3,"Br, Dy",2,0.0,Hexagonal,194,P6_3/mmc,3.0029,True,False
mp-977053,Pm3Er,"Er, Pm",2,0.026896489791663925,Hexagonal,194,P6_3/mmc,0.0,True,True
mp-571557,V6Ga5,"Ga, V",2,0.0,Hexagonal,194,P6_3/mmc,0.0,False,True
mp-1186283,Nd3Sc,"Nd, Sc",2,0.04752834437500297,Hexagonal,194,P6_3/mmc,0.0,True,True
mp-862617,AcAl3,"Ac, Al",2,0.0,Hexagonal,194,P6_3/mmc,0.0,True,True
mp-504769,N2O5,"N, O",2,0.00762293973214323,Hexagonal,194,P6_3/mmc,0.6751,False,False
mp-23188,In2Bi,"Bi, In",2,0.061025692777775475,Hexagonal,194,P6_3/mmc,0.0,False,True
mp-1187789,Y3Er,"Er, Y",2,0.03728296291666666,Hexagonal,194,P6_3/mmc,0.0,True,True
mp-1102508,DyOs2,"Dy, Os",2,0.0,Hexagonal,194,P6_3/mmc,0.0,False,True
mp-1185577,CsHg3,"Cs, Hg",2,0.007734481666673787,Hexagonal,194,P6_3/mmc,0.0,True,True
mp-1190681,ZrFe2,"Fe, Zr",2,0.0024678108333340276,Hexagonal,194,P6_3/mmc,0.0,False,True
mp-1187373,TbPr3,"Pr, Tb",2,0.039278006250000885,Hexagonal,194,P6_3/mmc,0.0,True,True
mp-19713,Sc3In,"In, Sc",2,0.0,Hexagonal,194,P6_3/mmc,0.0,False,True
mp-980200,Zn3Rh,"Rh, Zn",2,0.005577937499998242,Hexagonal,194,P6_3/mmc,0.0,True,True
mp-1212970,Fe7Ge4,"Fe, Ge",2,0.06478050560606086,Hexagonal,194,P6_3/mmc,0.0,True,True
mp-1184192,Er3Tm,"Er, Tm",2,0.0,Hexagonal,194,P6_3/mmc,0.0,True,True
mp-1185955,MgPb2,"Mg, Pb",2,0.02011396166667323,Hexagonal,194,P6_3/mmc,0.0,True,True
mp-1183216,AlCu3,"Al, Cu",2,0.0025298275000000814,Hexagonal,194,P6_3/mmc,0.0,True,True
mp-1183232,AlNi3,"Al, Ni",2,0.02122097874999973,Hexagonal,194,P6_3/mmc,0.0,True,True
mp-1183662,Cd3Ga,"Cd, Ga",2,0.09590597374999987,Hexagonal,194,P6_3/mmc,0.0,True,True
mp-1186612,PmMg3,"Mg, Pm",2,0.03766917625000055,Hexagonal,194,P6_3/mmc,0.0,True,True
mp-1185906,MgI3,"I, Mg",2,0.09416347374999923,Hexagonal,194,P6_3/mmc,0.0,True,True
mp-570463,TaCo2,"Co, Ta",2,0.03950635824999793,Hexagonal,194,P6_3/mmc,0.0,False,True
mp-1078842,GdHg3,"Gd, Hg",2,0.0,Hexagonal,194,P6_3/mmc,0.0,False,True
mp-1186543,Pm3Y,"Pm, Y",2,0.02900700312499893,Hexagonal,194,P6_3/mmc,0.0,True,True
mp-1184027,Cu3Rh,"Cu, Rh",2,0.04562692374999955,Hexagonal,194,P6_3/mmc,0.0,True,True
mp-862866,PaTe3,"Pa, Te",2,0.0,Hexagonal,194,P6_3/mmc,0.0,True,True
mp-1184301,Ga3Ag,"Ag, Ga",2,0.08129666614583364,Hexagonal,194,P6_3/mmc,0.0,True,True
mp-867865,ReRh3,"Re, Rh",2,0.0,Hexagonal,194,P6_3/mmc,0.0,True,True
mp-2772,ZrAl2,"Al, Zr",2,0.0,Hexagonal,194,P6_3/mmc,0.0,False,True
mp-865103,DyGa3,"Dy, Ga",2,0.0,Hexagonal,194,P6_3/mmc,0.0,True,True
mp-865572,CeAu3,"Au, Ce",2,0.0,Hexagonal,194,P6_3/mmc,0.0,True,True
mp-485,ZrNi3,"Ni, Zr",2,0.0,Hexagonal,194,P6_3/mmc,0.0,False,True
mp-542614,VCo3,"Co, V",2,0.08504460749999865,Hexagonal,194,P6_3/mmc,0.0,False,True
mp-581595,Pu13Zn58,"Pu, Zn",2,0.026158087394366536,Hexagonal,194,P6_3/mmc,0.0,False,True
mp-1124,MgZn2,"Mg, Zn",2,0.0,Hexagonal,194,P6_3/mmc,0.0,False,True
mp-985475,Fe3Mo,"Fe, Mo",2,0.08414985374999873,Hexagonal,194,P6_3/mmc,0.0,True,True
mp-510184,GdOs2,"Gd, Os",2,0.0,Hexagonal,194,P6_3/mmc,0.0,False,True
mp-1184313,ErMg3,"Er, Mg",2,0.009175194999999192,Hexagonal,194,P6_3/mmc,0.0,True,True
mp-981748,TbAg3,"Ag, Tb",2,0.051268215380435134,Hexagonal,194,P6_3/mmc,0.0,True,True
mp-1102043,LaOs2,"La, Os",2,0.002787558055555195,Hexagonal,194,P6_3/mmc,0.0,False,True
mp-1704,Tb2Tl,"Tb, Tl",2,0.011770015925927524,Hexagonal,194,P6_3/mmc,0.0,False,True
mp-569265,Mg3Pt,"Mg, Pt",2,0.018898404999998508,Hexagonal,194,P6_3/mmc,0.0,False,True
mp-978270,MgZr3,"Mg, Zr",2,0.04141552624999889,Hexagonal,194,P6_3/mmc,0.0,True,True
mp-2273178,EuAs,"As, Eu",2,0.002302489166668309,Hexagonal,194,P6_3/mmc,0.0,True,True
mp-1186568,PmEr3,"Er, Pm",2,0.005686774375000425,Hexagonal,194,P6_3/mmc,0.0,True,True
mp-1199967,LuZn5,"Lu, Zn",2,0.03165936599999952,Hexagonal,194,P6_3/mmc,0.0,False,True
mp-11284,CaGa2,"Ca, Ga",2,0.0,Hexagonal,194,P6_3/mmc,0.0,False,True
mp-1185342,LiAg3,"Ag, Li",2,0.008258951249999313,Hexagonal,194,P6_3/mmc,0.0,True,True
mp-12174,HfNi3,"Hf, Ni",2,0.0,Hexagonal,194,P6_3/mmc,0.0,False,True
mp-6913,YN,"N, Y",2,0.08746472249999826,Hexagonal,194,P6_3/mmc,0.7004999999999999,True,False
mp-1667,Co2Ge,"Co, Ge",2,0.05223900083333177,Hexagonal,194,P6_3/mmc,0.0,False,True
mp-568337,ThRh2,"Rh, Th",2,0.0,Hexagonal,194,P6_3/mmc,0.0,False,True
mp-556742,GaS,"Ga, S",2,0.0009222900000001033,Hexagonal,194,P6_3/mmc,2.0183,False,False
mp-973316,NaLi3,"Li, Na",2,0.04065985874999978,Hexagonal,194,P6_3/mmc,0.0,True,True
mp-8354,LaF3,"F, La",2,0.018805870833334737,Hexagonal,194,P6_3/mmc,5.761,False,False
mp-866076,NdAu3,"Au, Nd",2,0.027958191745868,Hexagonal,194,P6_3/mmc,0.0,True,True
mp-571501,Pr13Zn58,"Pr, Zn",2,0.0,Hexagonal,194,P6_3/mmc,0.0,False,True
mp-788,CoTe,"Co, Te",2,0.09038063124999951,Hexagonal,194,P6_3/mmc,0.0,False,True
mp-1186572,PmEu3,"Eu, Pm",2,0.06475001562500182,Hexagonal,194,P6_3/mmc,0.0,True,True
mp-974747,MnCu3,"Cu, Mn",2,0.09274921801724112,Hexagonal,194,P6_3/mmc,0.0,True,True
mp-1186968,Sc3Ga,"Ga, Sc",2,0.02340561562500021,Hexagonal,194,P6_3/mmc,0.0,True,True
mp-1102436,YCu2,"Cu, Y",2,0.07344588583333156,Hexagonal,194,P6_3/mmc,0.0,True,True
mp-979026,SmTm3,"Sm, Tm",2,0.008356954999996447,Hexagonal,194,P6_3/mmc,0.0,True,True
mp-1184700,Hg3Pb,"Hg, Pb",2,0.06834607812499627,Hexagonal,194,P6_3/mmc,0.0,True,True
mp-31498,BaPt,"Ba, Pt",2,0.0,Hexagonal,194,P6_3/mmc,0.0,False,True
mp-1205873,MgHg3,"Hg, Mg",2,0.03156055874999275,Hexagonal,194,P6_3/mmc,0.0,True,True
mp-1186487,PrSm3,"Pr, Sm",2,0.02868737208333627,Hexagonal,194,P6_3/mmc,0.0,True,True
mp-1079071,EuTl3,"Eu, Tl",2,0.010477992500000255,Hexagonal,194,P6_3/mmc,0.0,False,True
mp-972876,Sc3Cd,"Cd, Sc",2,0.005746059999999886,Hexagonal,194,P6_3/mmc,0.0,True,True
mp-13051,Sr2Si,"Si, Sr",2,0.07787544666666868,Hexagonal,194,P6_3/mmc,0.0,True,True
mp-1095697,LaMg2,"La, Mg",2,0.028436601666667283,Hexagonal,194,P6_3/mmc,0.0,False,True
mp-30745,Ir3W,"Ir, W",2,0.0,Hexagonal,194,P6_3/mmc,0.0,False,True
mp-2816,Nd2Tl,"Nd, Tl",2,0.0158338397222213,Hexagonal,194,P6_3/mmc,0.0,False,True
mp-867317,Cu3Si,"Cu, Si",2,0.026808796999999274,Hexagonal,194,P6_3/mmc,0.0,True,True
mp-21486,Tm2In,"In, Tm",2,0.0,Hexagonal,194,P6_3/mmc,0.0,False,True
mp-1184355,Ga3Ge,"Ga, Ge",2,0.09579147937500032,Hexagonal,194,P6_3/mmc,0.0,True,True
mp-1184394,Eu3Mg,"Eu, Mg",2,0.042709254062495816,Hexagonal,194,P6_3/mmc,0.0,True,True
mp-580354,CeNi3,"Ce, Ni",2,0.0,Hexagonal,194,P6_3/mmc,0.0,False,True
mp-1093999,Zn2Ag,"Ag, Zn",2,0.0,Hexagonal,194,P6_3/mmc,0.0,True,True
mp-1183111,Ac3Ho,"Ac, Ho",2,0.07054585562499938,Hexagonal,194,P6_3/mmc,0.0,True,True
mp-862800,PrI3,"I, Pr",2,0.0,Hexagonal,194,P6_3/mmc,1.9493,True,False
mp-1079240,LiAl,"Al, Li",2,0.08662110999999939,Hexagonal,194,P6_3/mmc,0.0,False,True
mp-13503,ScZn2,"Sc, Zn",2,0.0,Hexagonal,194,P6_3/mmc,0.0,False,True
mp-979266,Sm3Al,"Al, Sm",2,0.0,Hexagonal,194,P6_3/mmc,0.0,True,True
mp-862852,PaNi3,"Ni, Pa",2,0.0,Hexagonal,194,P6_3/mmc,0.0,True,True
mp-1187332,TbBi3,"Bi, Tb",2,0.061596967500001654,Hexagonal,194,P6_3/mmc,0.0,True,True
mp-1184432,Eu3Lu,"Eu, Lu",2,0.08706087249999683,Hexagonal,194,P6_3/mmc,0.0,True,True
mp-30428,BaCu,"Ba, Cu",2,0.0,Hexagonal,194,P6_3/mmc,0.0,False,True
mp-1215055,Ce2Cd17,"Cd, Ce",2,0.045725260197368556,Hexagonal,194,P6_3/mmc,0.0,True,True
mp-540547,Sm2Co7,"Co, Sm",2,0.0,Hexagonal,194,P6_3/mmc,0.0,False,True
mp-1185155,KBa3,"Ba, K",2,0.0967992269375002,Hexagonal,194,P6_3/mmc,0.0,True,True
mp-225,ErZn5,"Er, Zn",2,0.031298707722221764,Hexagonal,194,P6_3/mmc,0.0,False,True
mp-1183266,AcPr3,"Ac, Pr",2,0.045715578124998046,Hexagonal,194,P6_3/mmc,0.0,True,True
mp-1195962,Ce2Fe17,"Ce, Fe",2,0.04132631078947391,Hexagonal,194,P6_3/mmc,0.0,False,True
mp-680606,Th2Co7,"Co, Th",2,0.03733550638889227,Hexagonal,194,P6_3/mmc,0.0,False,True
mp-2619,FeSb,"Fe, Sb",2,0.04035167749999857,Hexagonal,194,P6_3/mmc,0.0,False,True
mp-1200103,Er2Zn17,"Er, Zn",2,0.0037577218421056546,Hexagonal,194,P6_3/mmc,0.0,False,True
mp-570963,TaCr2,"Cr, Ta",2,0.07452002505555555,Hexagonal,194,P6_3/mmc,0.0,False,True
mp-1199021,Nd2Zn17,"Nd, Zn",2,0.005055121842132637,Hexagonal,194,P6_3/mmc,0.0,False,True
mp-1187077,SnRh3,"Rh, Sn",2,0.014290054999999136,Hexagonal,194,P6_3/mmc,0.0,True,True
mp-1202085,ThCd5,"Cd, Th",2,0.0350183484722244,Hexagonal,194,P6_3/mmc,0.0,False,True
mp-1072086,TaS2,"S, Ta",2,0.016381053333333284,Hexagonal,194,P6_3/mmc,0.0,False,True
mp-862655,Ru3W,"Ru, W",2,0.0,Hexagonal,194,P6_3/mmc,0.0,True,True
mp-865450,ThGa3,"Ga, Th",2,0.0,Hexagonal,194,P6_3/mmc,0.0,True,True
mp-1677,Be2Mo,"Be, Mo",2,0.0,Hexagonal,194,P6_3/mmc,0.0,False,True
mp-1200559,Er2Ni7,"Er, Ni",2,0.0034789661110901093,Hexagonal,194,P6_3/mmc,0.0,False,True
mp-1184377,Eu3Bi,"Bi, Eu",2,0.0910465079166638,Hexagonal,194,P6_3/mmc,0.0,True,True
mp-1185931,Mn3Pt,"Mn, Pt",2,0.010748121034483304,Hexagonal,194,P6_3/mmc,0.0,True,True
mp-1187176,SrCa3,"Ca, Sr",2,0.0009647012499982566,Hexagonal,194,P6_3/mmc,0.0,True,True
mp-985554,Ac3Nd,"Ac, Nd",2,0.018526088750000724,Hexagonal,194,P6_3/mmc,0.0,True,True
mp-567164,BRh,"B, Rh",2,0.0,Hexagonal,194,P6_3/mmc,0.0,False,True
mp-1191009,NbCo2,"Co, Nb",2,0.015001669222222347,Hexagonal,194,P6_3/mmc,0.0,False,True
mp-1187593,Tl3As,"As, Tl",2,0.01837680812499798,Hexagonal,194,P6_3/mmc,0.0,True,True
mp-956096,HfFe2,"Fe, Hf",2,0.013042935833334823,Hexagonal,194,P6_3/mmc,0.0,False,True
mp-1184004,CuAu3,"Au, Cu",2,0.015877042500001437,Hexagonal,194,P6_3/mmc,0.0,True,True
mp-1183260,AcSm3,"Ac, Sm",2,0.039414258124999435,Hexagonal,194,P6_3/mmc,0.0,True,True
mp-866222,AcSi3,"Ac, Si",2,0.0,Hexagonal,194,P6_3/mmc,0.0,True,True
mp-1185151,KSn3,"K, Sn",2,0.05729916087053466,Hexagonal,194,P6_3/mmc,0.0,True,True
mp-1198482,Nd2Co7,"Co, Nd",2,0.06323459043650814,Hexagonal,194,P6_3/mmc,0.0,False,True
mp-862783,KTl3,"K, Tl",2,0.01626907089285501,Hexagonal,194,P6_3/mmc,0.0,True,True
mp-30401,KAu2,"Au, K",2,0.0,Hexagonal,194,P6_3/mmc,0.0,False,True
mp-865598,YGa3,"Ga, Y",2,0.0,Hexagonal,194,P6_3/mmc,0.0,True,True
mp-1184009,GaCo3,"Co, Ga",2,0.05169204124999993,Hexagonal,194,P6_3/mmc,0.0,True,True
mp-977225,LaNd3,"La, Nd",2,0.03145736687500289,Hexagonal,194,P6_3/mmc,0.0,True,True
mp-862620,IrRu3,"Ir, Ru",2,0.0,Hexagonal,194,P6_3/mmc,0.0,True,True
mp-500,TaSe2,"Se, Ta",2,0.001075968333335453,Hexagonal,194,P6_3/mmc,0.0,False,True
mp-569518,U2Zn17,"U, Zn",2,0.0024484347368423087,Hexagonal,194,P6_3/mmc,0.0,False,True
mp-1184930,HoLu3,"Ho, Lu",2,0.0013734237500031554,Hexagonal,194,P6_3/mmc,0.0,True,True
mp-568077,TaFe2,"Fe, Ta",2,0.0,Hexagonal,194,P6_3/mmc,0.0,False,True
mp-1275937,CoO2,"Co, O",2,0.09650163333333239,Hexagonal,194,P6_3/mmc,0.0,True,True
mp-1183125,AcEu3,"Ac, Eu",2,0.02546638562500192,Hexagonal,194,P6_3/mmc,0.0,True,True
mp-569037,Y3H2,"H, Y",2,0.01850698899999692,Hexagonal,194,P6_3/mmc,0.0,True,True
mp-10598,CuSn,"Cu, Sn",2,0.009223705000000137,Hexagonal,194,P6_3/mmc,0.0,False,True
mp-1080098,Nd3Al,"Al, Nd",2,0.0,Hexagonal,194,P6_3/mmc,0.0,False,True
mp-1186784,PrY3,"Pr, Y",2,0.02113409833333435,Hexagonal,194,P6_3/mmc,0.0,True,True
mp-1094397,Y3Mg,"Mg, Y",2,0.07491996250000188,Hexagonal,194,P6_3/mmc,0.0,True,True
mp-975170,RbHg3,"Hg, Rb",2,0.015551881111107835,Hexagonal,194,P6_3/mmc,0.0,True,True
mp-1079249,TbH3,"H, Tb",2,0.008868539166666523,Hexagonal,194,P6_3/mmc,0.0,True,True
mp-979980,VPd3,"Pd, V",2,0.0010834437500015781,Hexagonal,194,P6_3/mmc,0.0,True,True
mp-975799,LiZn3,"Li, Zn",2,0.0053559062499966,Hexagonal,194,P6_3/mmc,0.0,True,True