material_id,formula,elements,num_elements,energy_above_hull,crystal_system,spacegroup_number,spacegroup_symbol,band_gap,theoretical,is_metal
mp-754769,TiO2,"O, Ti",2,0.03629339750000149,Orthorhombic,62,Pnma,2.2943,True,False
mp-29109,SiI3,"I, Si",2,0.00028739562499779936,Orthorhombic,62,Pnma,2.8485,False,False
mp-1196008,Ho5Ge4,"Ge, Ho",2,0.0,Orthorhombic,62,Pnma,0.0,False,True
mp-1102116,UAs2,"As, U",2,0.07105907666666411,Orthorhombic,62,Pnma,0.0,False,True
mp-1025399,LaAu,"Au, La",2,0.002857545000004791,Orthorhombic,62,Pnma,0.0,False,True
mp-1103028,Ba2Pd,"Ba, Pd",2,0.001974802499999484,Orthorhombic,62,Pnma,0.0,False,True
mp-1189274,Er3Ru,"Er, Ru",2,0.0,Orthorhombic,62,Pnma,0.0,False,True
mp-640095,La3Co,"Co, La",2,0.0,Orthorhombic,62,Pnma,0.0,False,True
mp-600428,Mn3Sn2,"Mn, Sn",2,0.07212195174137648,Orthorhombic,62,Pnma,0.0,False,True
mp-16526,AlPt2,"Al, Pt",2,0.0022047591666662925,Orthorhombic,62,Pnma,0.0,False,True
mp-1128,SiIr,"Ir, Si",2,0.0,Orthorhombic,62,Pnma,0.0,False,True
mp-556978,Na2S,"Na, S",2,0.034994842499999734,Orthorhombic,62,Pnma,2.1176000000000004,False,False
mp-31463,Tb5Bi3,"Bi, Tb",2,0.0031465699999984054,Orthorhombic,62,Pnma,0.0,False,True
mp-22646,InPd2,"In, Pd",2,0.0,Orthorhombic,62,Pnma,0.0,False,True
mp-1210109,NdBr2,"Br, Nd",2,0.037483827777776924,Orthorhombic,62,Pnma,0.0,True,True
mp-31086,NaP5,"Na, P",2,0.009960415000000111,Orthorhombic,62,Pnma,1.3958000000000004,False,False
mp-1195885,Er5Pt4,"Er, Pt",2,0.0033842338888874224,Orthorhombic,62,Pnma,0.0,False,True
mp-1197748,Hf5As3,"As, Hf",2,0.0,Orthorhombic,62,Pnma,0.0,False,True
mp-1042,HfSi,"Hf, Si",2,0.0,Orthorhombic,62,Pnma,0.0,False,True
mp-1198681,Pr5Pb4,"Pb, Pr",2,0.0,Orthorhombic,62,Pnma,0.0,False,True
mp-1199253,V11Ge8,"Ge, V",2,0.0,Orthorhombic,62,Pnma,0.0,False,True
mp-636334,SnRh2,"Rh, Sn",2,0.0,Orthorhombic,62,Pnma,0.0,False,True
mp-1194708,GdCu6,"Cu, Gd",2,0.003399964642859743,Orthorhombic,62,Pnma,0.0,False,True
mp-2517,Ca2Si,"Ca, Si",2,0.0010894249999999772,Orthorhombic,62,Pnma,0.2915000000000001,False,False
mp-505002,Sc5As3,"As, Sc",2,0.0,Orthorhombic,62,Pnma,0.0,False,True
mp-683941,Nb14S5,"Nb, S",2,0.0,Orthorhombic,62,Pnma,0.0,False,True
mp-438,Nd2S3,"Nd, S",2,0.0,Orthorhombic,62,Pnma,0.7595999999999998,False,False
mp-1102362,Ce2Au,"Au, Ce",2,0.08062747749999488,Orthorhombic,62,Pnma,0.0,False,True
mp-9905,Ba2Si,"Ba, Si",2,0.0,Orthorhombic,62,Pnma,0.0,False,True
mp-1192935,PuCu6,"Cu, Pu",2,0.04937924089286039,Orthorhombic,62,Pnma,0.0,False,True
mp-1199503,Y3In5,"In, Y",2,0.06455999499999976,Orthorhombic,62,Pnma,0.0,False,True
mp-1102098,Nd2Au,"Au, Nd",2,0.0,Orthorhombic,62,Pnma,0.0,False,True
mp-1188974,Ce3Os,"Ce, Os",2,0.0,Orthorhombic,62,Pnma,0.0,False,True
mp-13688,Ge2Mo,"Ge, Mo",2,0.0,Orthorhombic,62,Pnma,0.0,False,True
mp-1188098,CeZn3,"Ce, Zn",2,0.0,Orthorhombic,62,Pnma,0.0,False,True
mp-1196455,Tm5Ge4,"Ge, Tm",2,0.0,Orthorhombic,62,Pnma,0.0,False,True
mp-30843,Sr7Pt3,"Pt, Sr",2,0.0,Orthorhombic,62,Pnma,0.0,False,True
mp-30379,GaAu,"Au, Ga",2,0.0,Orthorhombic,62,Pnma,0.0,False,True
mp-1106300,Nd3Ru,"Nd, Ru",2,0.0034322184374993014,Orthorhombic,62,Pnma,0.0,False,True
mp-607138,Sc5Bi3,"Bi, Sc",2,0.0,Orthorhombic,62,Pnma,0.0,False,True
mp-1397,Rb2Te,"Rb, Te",2,0.008128231666667318,Orthorhombic,62,Pnma,1.7021,True,False
mp-622209,Al3Ni,"Al, Ni",2,0.0,Orthorhombic,62,Pnma,0.0,False,True
mp-1188476,Ho3Pt,"Ho, Pt",2,0.0,Orthorhombic,62,Pnma,0.0,False,True
mp-581990,Bi3Rh,"Bi, Rh",2,0.018761169791666532,Orthorhombic,62,Pnma,0.0,False,True
mp-561877,HoF3,"F, Ho",2,0.0,Orthorhombic,62,Pnma,7.7482,False,False
mp-2511,PbF2,"F, Pb",2,0.000928124166666322,Orthorhombic,62,Pnma,4.3804,False,False
mp-1924,TbSi,"Si, Tb",2,0.0,Orthorhombic,62,Pnma,0.0,False,True
mp-19326,MnO2,"Mn, O",2,0.015701586388887634,Orthorhombic,62,Pnma,0.0,False,True
mp-600014,SiO2,"O, Si",2,0.017375832777778655,Orthorhombic,62,Pnma,5.7274,True,False
mp-30736,HoZn3,"Ho, Zn",2,0.0,Orthorhombic,62,Pnma,0.0,False,True
mp-755089,ZrO2,"O, Zr",2,0.02797026166666683,Orthorhombic,62,Pnma,3.9595999999999996,True,False
mp-21717,Fe7C3,"C, Fe",2,0.06448911850000094,Orthorhombic,62,Pnma,0.0,False,True
mp-12834,ThCu6,"Cu, Th",2,0.0,Orthorhombic,62,Pnma,0.0,False,True
mp-1106376,Sm2Te3,"Sm, Te",2,0.0,Orthorhombic,62,Pnma,0.5334000000000003,False,False
mp-680602,Ce5Rh4,"Ce, Rh",2,0.024868928888885478,Orthorhombic,62,Pnma,0.0,False,True
mp-30719,Mg2Hg,"Hg, Mg",2,0.002498592500000285,Orthorhombic,62,Pnma,0.0,False,True
mp-20373,Co3B,"B, Co",2,0.017804337499999434,Orthorhombic,62,Pnma,0.0,False,True
mp-1047121,CrO2,"Cr, O",2,0.07095483416663484,Orthorhombic,62,Pnma,0.0,True,True
mp-1101210,VF5,"F, V",2,0.04895440666666673,Orthorhombic,62,Pnma,3.2852999999999994,True,False
mp-624187,Y5Bi3,"Bi, Y",2,0.0,Orthorhombic,62,Pnma,0.0,False,True
mp-2160,Sb2Se3,"Sb, Se",2,0.0,Orthorhombic,62,Pnma,0.7564000000000002,False,False
mp-1868,VS,"S, V",2,0.08773910062499723,Orthorhombic,62,Pnma,0.0,False,True
mp-23712,MgH2,"H, Mg",2,0.08165124583333316,Orthorhombic,62,Pnma,1.9527999999999999,False,False
mp-570775,BaAu,"Au, Ba",2,0.0,Orthorhombic,62,Pnma,0.0,False,True
mp-7857,TiB,"B, Ti",2,0.0,Orthorhombic,62,Pnma,0.0,False,True
mp-10025,SiRu2,"Ru, Si",2,0.03698515583333162,Orthorhombic,62,Pnma,0.0,False,True
mp-9998,MoAs,"As, Mo",2,0.04727830071428585,Orthorhombic,62,Pnma,0.0,False,True
mp-2058,Ni3B,"B, Ni",2,0.0,Orthorhombic,62,Pnma,0.0,False,True
mp-12636,PRu,"P, Ru",2,0.0,Orthorhombic,62,Pnma,0.0,False,True
mp-20669,Ca2In,"Ca, In",2,0.0003651354999991696,Orthorhombic,62,Pnma,0.0,False,True
mp-1078500,PbS,"Pb, S",2,0.03096095999999804,Orthorhombic,62,Pnma,1.2176999999999998,False,False
mp-7343,Y3Pt,"Pt, Y",2,0.0,Orthorhombic,62,Pnma,0.0,False,True
mp-1102396,Ba2In,"Ba, In",2,0.0007876921666705172,Orthorhombic,62,Pnma,0.0,False,True
mp-568716,SrAg,"Ag, Sr",2,0.0,Orthorhombic,62,Pnma,0.0,False,True
mp-8850,Dy2S3,"Dy, S",2,0.0065266820000005055,Orthorhombic,62,Pnma,0.7389000000000001,False,False
mp-16380,Nd2Te3,"Nd, Te",2,0.0,Orthorhombic,62,Pnma,0.0,False,True
mp-600024,SiO2,"O, Si",2,0.01840327124999952,Orthorhombic,62,Pnma,5.75,True,False
mp-1189497,La3Ni,"La, Ni",2,0.0036061577083312812,Orthorhombic,62,Pnma,0.0,False,True
mp-13922,Ba2Ge,"Ba, Ge",2,0.0,Orthorhombic,62,Pnma,0.0,False,True
mp-7289,K2Te3,"K, Te",2,0.0,Orthorhombic,62,Pnma,0.5752000000000002,False,False
mp-19940,VAs,"As, V",2,0.0,Orthorhombic,62,Pnma,0.0,False,True
mp-1195719,Tm5Bi3,"Bi, Tm",2,0.011047937812496578,Orthorhombic,62,Pnma,0.0,False,True
mp-25280,V2O5,"O, V",2,0.008959156071428609,Orthorhombic,62,Pnma,2.0566,True,False
mp-2714,Pr2Au,"Au, Pr",2,0.0,Orthorhombic,62,Pnma,0.0,False,True
mp-29790,U3Te5,"Te, U",2,0.0024769631249981217,Orthorhombic,62,Pnma,0.0,False,True
mp-1637,Re2P,"P, Re",2,0.0,Orthorhombic,62,Pnma,0.0,False,True
mp-7368,Dy2Se3,"Dy, Se",2,0.0,Orthorhombic,62,Pnma,0.3663000000000003,False,False
mp-623027,Pr2Ga,"Ga, Pr",2,0.019296093703701445,Orthorhombic,62,Pnma,0.0,False,True
mp-1189701,SrHg3,"Hg, Sr",2,0.031222650624999293,Orthorhombic,62,Pnma,0.0,False,True
mp-1212843,DyF3,"Dy, F",2,0.0,Orthorhombic,62,Pnma,7.7755,True,False
mp-543052,Tm5Sb3,"Sb, Tm",2,0.0,Orthorhombic,62,Pnma,0.0,False,True
mp-1200515,Tb5Si4,"Si, Tb",2,0.013434917083333886,Orthorhombic,62,Pnma,0.0,False,True
mp-7353,Hf3Cu8,"Cu, Hf",2,0.0,Orthorhombic,62,Pnma,0.0,False,True
mp-2576,Sr2Ge,"Ge, Sr",2,0.0,Orthorhombic,62,Pnma,0.36339999999999995,False,False
mp-542587,Ge3Pt2,"Ge, Pt",2,0.0,Orthorhombic,62,Pnma,0.0,False,True
mp-667324,In2Cl3,"Cl, In",2,0.00333286658750076,Orthorhombic,62,Pnma,2.295,False,False
mp-505541,V5As3,"As, V",2,0.04548541593750066,Orthorhombic,62,Pnma,0.0,False,True
mp-27145,Ca5Bi3,"Bi, Ca",2,0.0,Orthorhombic,62,Pnma,0.0,False,True
mp-1469,P4S3,"P, S",2,0.0030912839285708316,Orthorhombic,62,Pnma,2.8816,False,False
mp-985782,H2C,"C, H",2,0.044776267916665446,Orthorhombic,62,Pnma,6.167999999999999,True,False
mp-505071,Si2Pd9,"Pd, Si",2,0.0,Orthorhombic,62,Pnma,0.0,False,True
mp-22855,HgCl2,"Cl, Hg",2,0.0,Orthorhombic,62,Pnma,2.8686,False,False
mp-23291,PbCl2,"Cl, Pb",2,0.0,Orthorhombic,62,Pnma,3.7939,False,False
mp-555003,WF6,"F, W",2,0.0,Orthorhombic,62,Pnma,5.3735,False,False
mp-17739,Sr5Sb3,"Sb, Sr",2,0.001357225937500317,Orthorhombic,62,Pnma,0.11430000000000007,False,False
mp-1210680,MgPb2,"Mg, Pb",2,0.03223341583333372,Orthorhombic,62,Pnma,0.0,True,True
mp-1189834,Lu3Pt,"Lu, Pt",2,0.00412671833333178,Orthorhombic,62,Pnma,0.0,False,True
mp-726865,KI,"I, K",2,0.02016976125000003,Orthorhombic,62,Pnma,3.7323999999999997,True,False
mp-30478,Ca2Pb,"Ca, Pb",2,0.0,Orthorhombic,62,Pnma,0.0,False,True
mp-1078557,PrPt,"Pr, Pt",2,0.0,Orthorhombic,62,Pnma,0.0,False,True
mp-1374892,SnO2,"O, Sn",2,0.08549872375000156,Orthorhombic,62,Pnma,1.2293999999999996,True,False
mp-1197877,La5Rh4,"La, Rh",2,0.018963846666667727,Orthorhombic,62,Pnma,0.0,False,True
mp-1103643,NiS2,"Ni, S",2,0.06017464333333411,Orthorhombic,62,Pnma,0.0,True,True
mp-1101810,Ge2W,"Ge, W",2,0.06830493166666685,Orthorhombic,62,Pnma,0.0,False,True
mp-20418,SiRh2,"Rh, Si",2,0.0,Orthorhombic,62,Pnma,0.0,False,True
mp-1188645,Y2S3,"S, Y",2,0.008065812999999977,Orthorhombic,62,Pnma,0.6665000000000001,False,False
mp-1095658,Tb2Au,"Au, Tb",2,0.0,Orthorhombic,62,Pnma,0.0,False,True
mp-1214207,CCl3,"C, Cl",2,0.018717241328125134,Orthorhombic,62,Pnma,4.7139,True,False
mp-542828,Dy5Si4,"Dy, Si",2,0.01635192333333535,Orthorhombic,62,Pnma,0.0,False,True
mp-15081,Sm2Se3,"Se, Sm",2,0.0,Orthorhombic,62,Pnma,0.3736999999999999,False,False
mp-1204902,Nd5Pb4,"Nd, Pb",2,0.0,Orthorhombic,62,Pnma,0.0,False,True
mp-22887,EuCl2,"Cl, Eu",2,0.0,Orthorhombic,62,Pnma,1.2143999999999995,False,False
mp-1102919,HgCl2,"Cl, Hg",2,0.06572913333333474,Orthorhombic,62,Pnma,3.5288999999999997,False,False
mp-1105615,Dy3Ir,"Dy, Ir",2,0.0,Orthorhombic,62,Pnma,0.0,False,True
mp-1188188,Mn3C,"C, Mn",2,0.016571311684781875,Orthorhombic,62,Pnma,0.0,False,True
mp-17466,Hf5Sb3,"Hf, Sb",2,0.0,Orthorhombic,62,Pnma,0.0,False,True
mp-755235,V2O5,"O, V",2,0.010889953571428634,Orthorhombic,62,Pnma,2.5161000000000002,True,False
mp-569855,MoCl5,"Cl, Mo",2,0.0002697806249987167,Orthorhombic,62,Pnma,0.0,False,True
mp-569388,Te2Ir,"Ir, Te",2,0.0,Orthorhombic,62,Pnma,0.0,True,True
mp-776386,ZrO2,"O, Zr",2,0.0882896758333338,Orthorhombic,62,Pnma,3.6170999999999998,True,False
mp-1080459,GeTe,"Ge, Te",2,0.028000343750001377,Orthorhombic,62,Pnma,0.15500000000000025,False,False
mp-648999,Nb5P3,"Nb, P",2,0.0,Orthorhombic,62,Pnma,0.0,False,True
mp-1188237,Tm3Ir,"Ir, Tm",2,0.0,Orthorhombic,62,Pnma,0.0,False,True
mp-1191118,Cs2Sb,"Cs, Sb",2,0.0,Orthorhombic,62,Pnma,0.28390000000000004,False,False
mp-22735,Ca2Sn,"Ca, Sn",2,0.0,Orthorhombic,62,Pnma,0.05590000000000028,False,False
mp-1207781,Y3Ru,"Ru, Y",2,0.0,Orthorhombic,62,Pnma,0.0,False,True
mp-755759,ZrO2,"O, Zr",2,0.02877601583333167,Orthorhombic,62,Pnma,2.9946,True,False
mp-30828,Sr2Pb,"Pb, Sr",2,0.0,Orthorhombic,62,Pnma,0.0,False,True
mp-1102616,Co2Ge,"Co, Ge",2,0.030897123333332388,Orthorhombic,62,Pnma,0.0,False,True
mp-568761,AgTe,"Ag, Te",2,0.0006414699999979234,Orthorhombic,62,Pnma,0.24110000000000031,False,False
mp-1102090,Ga2Au,"Au, Ga",2,0.09809407083333,Orthorhombic,62,Pnma,0.0,True,True
mp-1025468,CeAu,"Au, Ce",2,0.0,Orthorhombic,62,Pnma,0.0,False,True
mp-11525,TmNi,"Ni, Tm",2,0.0,Orthorhombic,62,Pnma,0.0,False,True
mp-1105741,Pr3Ru,"Pr, Ru",2,0.006458701041665904,Orthorhombic,62,Pnma,0.0,False,True
mp-27648,Te2Br,"Br, Te",2,0.0,Orthorhombic,62,Pnma,0.6562999999999999,False,False
mp-1105907,Er3Ni,"Er, Ni",2,0.0,Orthorhombic,62,Pnma,0.0,False,True
mp-1106,Sr2Si,"Si, Sr",2,0.0,Orthorhombic,62,Pnma,0.3433999999999999,False,False
mp-405,Ga2Pd5,"Ga, Pd",2,0.0,Orthorhombic,62,Pnma,0.0,False,True
mp-30366,Ca3Au,"Au, Ca",2,0.0,Orthorhombic,62,Pnma,0.0,False,True
mp-22876,CsI3,"Cs, I",2,0.0,Orthorhombic,62,Pnma,1.9163999999999999,False,False
mp-22908,BiCl3,"Bi, Cl",2,0.0,Orthorhombic,62,Pnma,3.3934,False,False
mp-1196525,Sm5Rh4,"Rh, Sm",2,0.0,Orthorhombic,62,Pnma,0.001000000000000334,False,False
mp-849533,TiO2,"O, Ti",2,0.09028106124999802,Orthorhombic,62,Pnma,2.7647,True,False
mp-600059,SiO2,"O, Si",2,0.013408811241831131,Tetragonal,81,P-4,5.7102,True,False
mp-1217665,Tb5Te9,"Tb, Te",2,0.017531635178571037,Tetragonal,81,P-4,0.23999999999999932,True,False
mp-1105852,Sc3As2,"As, Sc",2,0.04337033500000054,Tetragonal,83,P4/m,0.0,False,True
mp-540701,V3As2,"As, V",2,0.0,Tetragonal,83,P4/m,0.0,False,True
mp-30411,Mn9Au31,"Au, Mn",2,0.023309926125001823,Tetragonal,83,P4/m,0.0,False,True
mp-1229159,Ce19Ga13,"Ce, Ga",2,0.007046958124998781,Tetragonal,83,P4/m,0.0,True,True
mp-30673,Ti2Ga3,"Ga, Ti",2,0.0,Tetragonal,83,P4/m,0.0,False,True
mp-19884,Mn3P,"Mn, P",2,0.02649692718390817,Tetragonal,82,I-4,0.0,False,True
mp-1105134,AsPd3,"As, Pd",2,0.0,Tetragonal,82,I-4,0.0,False,True
mp-15964,Hf3Sb,"Hf, Sb",2,0.0,Tetragonal,82,I-4,0.0,False,True
mp-17728,Ta3Ge,"Ge, Ta",2,0.019328109062499266,Tetragonal,82,I-4,0.0,False,True
mp-1793,Zr3Te,"Te, Zr",2,0.0,Tetragonal,82,I-4,0.0,False,True
mp-17449,Tc3P,"P, Tc",2,0.0,Tetragonal,82,I-4,0.0,False,True
mp-780625,Tb5O9,"O, Tb",2,0.08767591562500243,Tetragonal,82,I-4,0.0,True,True
mp-1207416,Zr3Bi,"Bi, Zr",2,0.0,Tetragonal,82,I-4,0.0,True,True
mp-850026,Co21O40,"Co, O",2,0.04784086163934642,Tetragonal,82,I-4,0.0,True,True
mp-1106162,Nb3P,"Nb, P",2,0.02535736687500112,Tetragonal,82,I-4,0.0,False,True
mp-1178773,YFe2,"Fe, Y",2,0.0020466146666660023,Tetragonal,82,I-4,0.0,False,True
mp-1106195,PW3,"P, W",2,0.06177334375000498,Tetragonal,82,I-4,0.0,False,True
mp-554682,SiO2,"O, Si",2,0.010869252569444043,Tetragonal,82,I-4,5.7065,True,False
mp-1181327,Fe3B,"B, Fe",2,0.028980388749999975,Tetragonal,82,I-4,0.0,False,True
mp-1213762,Co3P,"Co, P",2,0.04757809125000101,Tetragonal,82,I-4,0.0,True,True
mp-2296,Ni3P,"Ni, P",2,0.0,Tetragonal,82,I-4,0.0,False,True
mp-32640,La5S8,"La, S",2,0.09537048451922914,Tetragonal,82,I-4,0.0,True,True
mp-18708,Fe3P,"Fe, P",2,0.0,Tetragonal,82,I-4,0.0,False,True
mp-554151,SiO2,"O, Si",2,0.011899476388888885,Tetragonal,82,I-4,5.725199999999999,True,False
mp-1189099,Mo3P,"Mo, P",2,0.0009189668749982616,Tetragonal,82,I-4,0.0,False,True
mp-760323,Ce5O9,"Ce, O",2,0.015717423571427247,Tetragonal,82,I-4,0.0,True,True
mp-1205390,Nb3Si,"Nb, Si",2,0.04872315604166744,Tetragonal,82,I-4,0.0,False,True
mp-1105139,Zr3Sb,"Sb, Zr",2,0.0,Tetragonal,82,I-4,0.0,False,True
mp-1189044,Ti3Ge,"Ge, Ti",2,0.013003969652777059,Tetragonal,82,I-4,0.0,False,True
mp-766493,Mn21O40,"Mn, O",2,0.06723339138661366,Tetragonal,82,I-4,0.0,True,True
mp-20250,PdS,"Pd, S",2,0.0,Tetragonal,84,P4_2/m,0.0,False,True
mp-796340,MnO2,"Mn, O",2,0.03608267388888997,Tetragonal,84,P4_2/m,0.785,False,False
mp-21165,PdSe,"Pd, Se",2,0.0,Tetragonal,84,P4_2/m,0.0,False,True
mp-30594,Cu4Pd,"Cu, Pd",2,0.015894708357143017,Tetragonal,84,P4_2/m,0.0,False,True
mp-561384,ZrF4,"F, Zr",2,0.0005878947499997622,Tetragonal,84,P4_2/m,4.4174,False,False
mp-1205321,PtS,"Pt, S",2,0.034906468749998254,Tetragonal,84,P4_2/m,0.18820000000000014,False,False
mp-568380,Tl5Se3,"Se, Tl",2,0.0,Tetragonal,85,P4/n,0.0,False,True
mp-23228,PCl5,"Cl, P",2,0.003938044583334133,Tetragonal,85,P4/n,1.7945,False,False
mp-684555,USe2,"Se, U",2,0.0,Tetragonal,85,P4/n,0.0,True,True
mp-870701,Fe4S5,"Fe, S",2,0.06386601999999986,Tetragonal,85,P4/n,0.0,True,True
mp-32711,SrBr2,"Br, Sr",2,0.0,Tetragonal,85,P4/n,4.299799999999999,False,False
mp-756640,VF5,"F, V",2,0.03385517625000034,Tetragonal,85,P4/n,3.0913000000000004,True,False
mp-23311,EuBr2,"Br, Eu",2,0.0,Tetragonal,85,P4/n,1.0457999999999998,False,False
mp-567618,Si5Pt12,"Pt, Si",2,0.05157169558823682,Tetragonal,85,P4/n,0.0,False,True
mp-570870,Hf5Sb9,"Hf, Sb",2,0.0,Tetragonal,85,P4/n,0.0,False,True
mp-775910,ZrO2,"O, Zr",2,0.04733514133333294,Tetragonal,85,P4/n,3.0081,True,False
mp-684620,Nb25S48,"Nb, S",2,0.0,Monoclinic,8,Cm,0.0,True,True
mp-684621,Cu13I15,"Cu, I",2,0.0,Monoclinic,8,Cm,0.0,True,True
mp-1039430,CaMg,"Ca, Mg",2,0.06642301958333285,Monoclinic,8,Cm,0.0,True,True
mp-1215884,Zn9Fe4,"Fe, Zn",2,0.08421599923076828,Monoclinic,8,Cm,0.0,True,True
mp-1094182,LaMg,"La, Mg",2,0.09601433750000288,Monoclinic,8,Cm,0.0,True,True
mp-976244,LiMg,"Li, Mg",2,0.006081540833333232,Monoclinic,8,Cm,0.0,True,True
mp-1222769,Li2Ga7,"Ga, Li",2,0.0,Monoclinic,8,Cm,0.15870000000000006,True,False
mp-655344,PbSe,"Pb, Se",2,0.0781568875000005,Monoclinic,8,Cm,1.286,True,False
mp-1219574,Rb5Sb4,"Rb, Sb",2,0.0,Monoclinic,8,Cm,0.0,True,True
mp-19457,V6O13,"O, V",2,0.05432259447368537,Monoclinic,8,Cm,0.0,True,True
mp-1223714,K5Sb4,"K, Sb",2,0.0009102500000004454,Monoclinic,8,Cm,0.0,True,True
mp-1226590,Er6Ge11,"Er, Ge",2,0.06074148352941222,Monoclinic,8,Cm,0.0,True,True
mp-1094609,LiMg5,"Li, Mg",2,0.012276034166666783,Monoclinic,8,Cm,0.0,True,True
mp-1238815,B4C,"B, C",2,0.0,Monoclinic,8,Cm,3.0415,True,False
mp-1190581,Re4Si7,"Re, Si",2,0.0,Monoclinic,8,Cm,0.05030000000000001,False,False
mp-1039594,CeMg,"Ce, Mg",2,0.05079344666666685,Monoclinic,8,Cm,0.0,True,True
mp-1216435,Y11Mg76,"Mg, Y",2,0.030149455229884214,Monoclinic,8,Cm,0.0,True,True
mp-1185831,Mg5Pb,"Mg, Pb",2,0.04990344583333339,Monoclinic,8,Cm,0.0,True,True
mp-685158,Cu16I19,"Cu, I",2,5.449560439796386e-06,Monoclinic,8,Cm,0.0,True,True
mp-1094246,MgSn5,"Mg, Sn",2,0.07800068291666751,Monoclinic,8,Cm,0.0,True,True
mp-1094435,MgZn,"Mg, Zn",2,0.09516835563333337,Monoclinic,8,Cm,0.0,True,True
mp-715557,W3O8,"O, W",2,0.00930498068181862,Monoclinic,8,Cm,0.0,True,True
mp-30180,Al4Mo,"Al, Mo",2,0.022488266833331494,Monoclinic,8,Cm,0.0,False,True
mp-1220533,NiBi,"Bi, Ni",2,0.008430603749999932,Monoclinic,8,Cm,0.0,True,True
mp-1228763,Al8V5,"Al, V",2,0.06294869538461612,Monoclinic,8,Cm,0.0,True,True
mp-1039659,CeMg2,"Ce, Mg",2,0.07373021444444383,Monoclinic,8,Cm,0.0,True,True
mp-1094455,Mg2Zn,"Mg, Zn",2,0.08861071320000025,Monoclinic,8,Cm,0.0,True,True
mp-1219596,Rb5Bi4,"Bi, Rb",2,0.0007919716319468861,Monoclinic,8,Cm,0.0,True,True
mp-1216505,V6Ga7,"Ga, V",2,0.04085129538461629,Monoclinic,8,Cm,0.0,True,True
mp-1215779,Zn10Pd3,"Pd, Zn",2,0.007245746713286483,Monoclinic,8,Cm,0.0,True,True
mp-780772,Ta2O5,"O, Ta",2,0.044056522380952146,Monoclinic,8,Cm,3.0732,True,False
mp-674332,U17O31,"O, U",2,0.0,Monoclinic,8,Cm,0.0,True,True
mp-1224231,In9Ag17,"Ag, In",2,0.0074985988804989745,Monoclinic,8,Cm,0.0,True,True
mp-760084,Cu8O7,"Cu, O",2,0.05159819933333232,Monoclinic,8,Cm,0.0,True,True
mp-1094704,Mg5Cd,"Cd, Mg",2,0.040687793333332944,Monoclinic,8,Cm,0.0,True,True
mp-1038866,CaMg5,"Ca, Mg",2,0.09011531833333275,Monoclinic,8,Cm,0.0,True,True
mp-1100190,LiMg,"Li, Mg",2,0.03073207,Monoclinic,8,Cm,0.0,True,True
mp-1094415,Y5Mg,"Mg, Y",2,0.06196636000000133,Monoclinic,8,Cm,0.0,True,True
mp-1226927,CeN2,"Ce, N",2,0.03645349819444377,Monoclinic,8,Cm,0.4652000000000003,True,False
mp-1094911,Mg2Cd,"Cd, Mg",2,0.05338764861111245,Monoclinic,8,Cm,0.0,True,True
mp-1094250,MgSn,"Mg, Sn",2,0.09638460208333255,Monoclinic,8,Cm,0.0,True,True
mp-1100191,YMg5,"Mg, Y",2,0.07855829166666561,Monoclinic,8,Cm,0.0,True,True
mp-1185827,Mg5In,"In, Mg",2,0.04687291999999976,Monoclinic,8,Cm,0.0,True,True
mp-1185918,MgIn5,"In, Mg",2,0.05685573814814937,Monoclinic,8,Cm,0.0,True,True
mp-977273,MgRh5,"Mg, Rh",2,0.05350583333333159,Monoclinic,8,Cm,0.0,True,True
mp-1080022,ZrCu,"Cu, Zr",2,0.02250555298077117,Monoclinic,8,Cm,0.0,False,True
mp-1094700,Mg18Al11,"Al, Mg",2,0.01190381958333342,Monoclinic,8,Cm,0.0,True,True
mp-1039471,MgCd,"Cd, Mg",2,0.04389307916666607,Monoclinic,8,Cm,0.0,True,True
mp-1104047,Al4Tc,"Al, Tc",2,0.0,Monoclinic,8,Cm,0.0,False,True
mp-1217166,Ti5S8,"S, Ti",2,0.03509438538461662,Monoclinic,8,Cm,0.0,True,True
mp-1094212,MgSn2,"Mg, Sn",2,0.08467542583333332,Monoclinic,8,Cm,0.0,True,True
mp-1094612,Mg5Ga,"Ga, Mg",2,0.05815321499999948,Monoclinic,8,Cm,0.0,True,True
mp-1094271,SrMg,"Mg, Sr",2,0.0969103108333329,Monoclinic,8,Cm,0.0,True,True
mp-1235059,LiO8,"Li, O",2,0.0,Monoclinic,8,Cm,0.0,True,True
mp-685100,Cu14I19,"Cu, I",2,0.015790284289044276,Monoclinic,8,Cm,0.0,True,True
mp-1039088,CeMg5,"Ce, Mg",2,0.07333079500000039,Monoclinic,8,Cm,0.0,True,True