material_id,formula,elements,num_elements,energy_above_hull,crystal_system,spacegroup_number,spacegroup_symbol,band_gap,theoretical,is_metal
mp-1210377,Sc57Ru13,"Ru, Sc",2,0.0,Cubic,200,Pm-3,0.009500000000000064,True,False
mp-30526,Mn4Al19,"Al, Mn",2,0.013860424314382058,Cubic,200,Pm-3,0.0,False,True
mp-30702,Sc29Fe6,"Fe, Sc",2,0.028910899571428672,Cubic,200,Pm-3,0.0,False,True
mp-30863,Sc57Rh13,"Rh, Sc",2,0.0,Cubic,200,Pm-3,0.0,False,True
mp-1201561,Sc57Ir13,"Ir, Sc",2,0.0015502434415584077,Cubic,200,Pm-3,0.025500000000000078,False,False
mp-1203422,Na2Cd11,"Cd, Na",2,0.0038802751676538794,Cubic,200,Pm-3,0.0,False,True
mp-30784,Mg2Zn11,"Mg, Zn",2,0.0,Cubic,200,Pm-3,0.0,False,True
mp-28880,W3Br7,"Br, W",2,0.04096949204166833,Cubic,201,Pn-3,0.0,False,True
mp-1210857,Mg26Ag7,"Ag, Mg",2,0.009078166969697321,Cubic,202,Fm-3,0.0,True,True
mp-2789,NO2,"N, O",2,0.0,Cubic,204,Im-3,2.8265,False,False
mp-8182,As3Rh,"As, Rh",2,0.0,Cubic,204,Im-3,0.0,False,True
mp-550,Al12Mo,"Al, Mo",2,0.014142691923076711,Cubic,204,Im-3,0.0,False,True
mp-1199166,Be17Os3,"Be, Os",2,0.0,Cubic,204,Im-3,0.0,False,True
mp-1648,Al12Re,"Al, Re",2,0.0,Cubic,204,Im-3,0.0,False,True
mp-1021498,P3Pd,"P, Pd",2,0.05830254041666727,Cubic,204,Im-3,0.0,False,True
mp-1106023,NiSb3,"Ni, Sb",2,0.01561135500000077,Cubic,204,Im-3,0.0,False,True
mp-569900,Sc3Zn17,"Sc, Zn",2,0.003441102562500742,Cubic,204,Im-3,0.0,False,True
mp-2301,NiP3,"Ni, P",2,0.0,Cubic,204,Im-3,0.0,False,True
mp-13853,P3Ir,"Ir, P",2,0.0,Cubic,204,Im-3,0.08490000000000109,False,False
mp-1211954,IrN3,"Ir, N",2,0.08032500937500231,Cubic,204,Im-3,0.0,True,True
mp-557865,NO2,"N, O",2,0.02684258499999892,Cubic,204,Im-3,2.781,False,False
mp-1104165,MnAl12,"Al, Mn",2,0.0,Cubic,204,Im-3,0.0,False,True
mp-1944,CoP3,"Co, P",2,0.0,Cubic,204,Im-3,0.0,False,True
mp-756478,WO3,"O, W",2,0.010663485937499217,Cubic,204,Im-3,1.0606,True,False
mp-2395,Sb3Rh,"Rh, Sb",2,0.0,Cubic,204,Im-3,0.0,False,True
mp-30443,Be17Ru3,"Be, Ru",2,0.0,Cubic,204,Im-3,0.0,False,True
mp-1239,Sb3Ir,"Ir, Sb",2,0.0,Cubic,204,Im-3,0.05369999999999919,False,False
mp-452,CoAs3,"As, Co",2,0.0,Cubic,204,Im-3,0.0,False,True
mp-971669,FeSb3,"Fe, Sb",2,0.0,Cubic,204,Im-3,0.0,True,True
mp-1357,P3Rh,"P, Rh",2,0.0,Cubic,204,Im-3,0.0,False,True
mp-540912,As3Ir,"As, Ir",2,0.0,Cubic,204,Im-3,0.026799999999999713,False,False
mp-568335,Cs2Hg27,"Cs, Hg",2,0.0,Cubic,204,Im-3,0.0,False,True
mp-1237229,ReO3,"O, Re",2,0.005713556875001302,Cubic,204,Im-3,0.0,False,True
mp-754430,Mn7O12,"Mn, O",2,0.0557821250657895,Cubic,204,Im-3,0.0,True,True
mp-1317,CoSb3,"Co, Sb",2,0.0,Cubic,204,Im-3,0.16330000000000044,False,False
mp-16719,Al12Tc,"Al, Tc",2,0.0,Cubic,204,Im-3,0.0,False,True
mp-20741,ReO3,"O, Re",2,0.0018787706249998593,Cubic,204,Im-3,0.0,False,True
mp-11227,Al12W,"Al, W",2,0.01520368538461625,Cubic,204,Im-3,0.0,False,True
mp-1103359,CoTe2,"Co, Te",2,0.023586295833329274,Cubic,205,Pa-3,0.0,False,True
mp-2280,CuSe2,"Cu, Se",2,0.006502081666667436,Cubic,205,Pa-3,0.0,False,True
mp-2142,Te2Os,"Os, Te",2,0.0,Cubic,205,Pa-3,0.0,False,True
mp-983,RhSe2,"Rh, Se",2,0.06111553666663383,Cubic,205,Pa-3,0.0,False,True
mp-754,Te2Rh,"Rh, Te",2,0.00042953583333371625,Cubic,205,Pa-3,0.0,False,True
mp-570285,SiBr4,"Br, Si",2,0.0,Cubic,205,Pa-3,4.1057,False,False
mp-569814,TiBr4,"Br, Ti",2,0.0,Cubic,205,Pa-3,2.7939,False,False
mp-22619,NiP2,"Ni, P",2,0.0,Cubic,205,Pa-3,0.0,False,True
mp-22864,Bi2Pt,"Bi, Pt",2,0.008360557083335607,Cubic,205,Pa-3,0.0,False,True
mp-558374,SiO2,"O, Si",2,0.03975507972222303,Cubic,205,Pa-3,5.5665000000000004,True,False
mp-1356,Sb2Pd,"Pd, Sb",2,0.0,Cubic,205,Pa-3,0.0,False,True
mp-23212,CuBr,"Br, Cu",2,0.061495064999999016,Cubic,205,Pa-3,0.17020000000000035,False,False
mp-1199460,BCl,"B, Cl",2,0.01141276319444362,Cubic,205,Pa-3,0.0,False,True
mp-20284,PdF2,"F, Pd",2,0.0,Cubic,205,Pa-3,0.0,False,True
mp-1207486,ZrBr4,"Br, Zr",2,0.0,Cubic,205,Pa-3,3.7707,True,False
mp-2282,NiS2,"Ni, S",2,0.015161365833333385,Cubic,205,Pa-3,0.0,False,True
mp-1102002,FeTe2,"Fe, Te",2,0.04490969833333569,Cubic,205,Pa-3,0.0,False,True
mp-21065,SiP2,"P, Si",2,0.015290283749999745,Cubic,205,Pa-3,0.0,False,True
mp-1095224,PtO2,"O, Pt",2,0.08511092833333223,Cubic,205,Pa-3,0.0,False,True
mp-21321,MnSe2,"Mn, Se",2,0.06920841864583238,Cubic,205,Pa-3,0.0,False,True
mp-22309,CoSe2,"Co, Se",2,0.0115906575000011,Cubic,205,Pa-3,0.0,False,True
mp-8909,RuO2,"O, Ru",2,0.06483860250000006,Cubic,205,Pa-3,0.0,False,True
mp-1068,CuS2,"Cu, S",2,0.009459551006944622,Cubic,205,Pa-3,0.0,False,True
mp-1102324,NiTe2,"Ni, Te",2,0.06997968833333346,Cubic,205,Pa-3,0.0,False,True
mp-1095353,IrO2,"Ir, O",2,0.07562860166666496,Cubic,205,Pa-3,0.0,False,True
mp-23266,GeI4,"Ge, I",2,0.0,Cubic,205,Pa-3,1.996,False,False
mp-2513,As2Pt,"As, Pt",2,0.0,Cubic,205,Pa-3,0.07850000000000001,False,False
mp-1102038,MgH2,"H, Mg",2,0.0352997833333335,Cubic,205,Pa-3,2.9992,True,False
mp-1746,MgF2,"F, Mg",2,0.06607834583333361,Cubic,205,Pa-3,6.7193,False,False
mp-22846,In5S4,"In, S",2,0.07945004749999995,Cubic,205,Pa-3,0.0,False,True
mp-20465,As2Pd,"As, Pd",2,0.0,Cubic,205,Pa-3,0.0,False,True
mp-1196483,Bi2O3,"Bi, O",2,0.037987467624998494,Cubic,205,Pa-3,2.5398000000000005,True,False
mp-1095264,OsO2,"O, Os",2,0.07342120083333192,Cubic,205,Pa-3,0.0,False,True
mp-23182,SnI4,"I, Sn",2,0.0,Cubic,205,Pa-3,2.0284,False,False
mp-1095493,CdSe2,"Cd, Se",2,0.0,Cubic,205,Pa-3,0.6141999999999999,False,False
mp-1102170,CrO2,"Cr, O",2,0.09845120083330094,Cubic,205,Pa-3,0.0,True,True
mp-22555,RhS2,"Rh, S",2,0.045008807864585165,Cubic,205,Pa-3,0.0,False,True
mp-2589,MgO2,"Mg, O",2,0.09430625916666546,Cubic,205,Pa-3,3.734,False,False
mp-1922,RuSe2,"Ru, Se",2,0.0,Cubic,205,Pa-3,0.31379999999999963,False,False
mp-1103235,CuTe2,"Cu, Te",2,0.05283479333333574,Cubic,205,Pa-3,0.0,False,True
mp-20901,NiSe2,"Ni, Se",2,0.0,Cubic,205,Pa-3,0.0,False,True
mp-571246,GeBr4,"Br, Ge",2,0.0,Cubic,205,Pa-3,2.9647,False,False
mp-2030,RuS2,"Ru, S",2,0.0,Cubic,205,Pa-3,0.6683999999999992,False,False
mp-635441,SiI4,"I, Si",2,0.0,Cubic,205,Pa-3,2.8561,False,False
mp-1103177,FeSe2,"Fe, Se",2,0.03198861499999861,Cubic,205,Pa-3,0.016299999999999315,False,False
mp-21873,NiAs2,"As, Ni",2,0.01998475250000098,Cubic,205,Pa-3,0.0,False,True
mp-1095440,CdS2,"Cd, S",2,0.05108735239583595,Cubic,205,Pa-3,1.1625,False,False
mp-738,Sb2Au,"Au, Sb",2,0.0,Cubic,205,Pa-3,0.0,False,True
mp-23287,CuCl,"Cl, Cu",2,0.03955842124999975,Cubic,205,Pa-3,0.4510000000000005,False,False
mp-21893,MnTe2,"Mn, Te",2,0.0,Cubic,205,Pa-3,0.0,False,True
mp-730,P2Pt,"P, Pt",2,0.0,Cubic,205,Pa-3,1.0185999999999993,False,False
mp-28988,In7Br9,"Br, In",2,0.010021336328125852,Cubic,205,Pa-3,1.5468,False,False
mp-998916,KO2,"K, O",2,0.04510906750000032,Cubic,205,Pa-3,0.0,True,True
mp-20066,CO2,"C, O",2,0.0,Cubic,205,Pa-3,6.6332,False,False
mp-2604,MgTe2,"Mg, Te",2,0.0,Cubic,205,Pa-3,1.1161999999999992,False,False
mp-1102515,ZnSe2,"Se, Zn",2,0.0,Cubic,205,Pa-3,0.7291999999999996,False,False
mp-2480,OsSe2,"Os, Se",2,0.0,Cubic,205,Pa-3,0.0,False,True
mp-1212517,HfBr4,"Br, Hf",2,0.0,Cubic,205,Pa-3,4.2933,True,False
mp-1103590,MgSe2,"Mg, Se",2,0.0,Cubic,205,Pa-3,1.9684999999999997,False,False
mp-10844,Te2Ir,"Ir, Te",2,0.07223242000000596,Cubic,205,Pa-3,0.0,False,True
mp-614,NaO2,"Na, O",2,0.019812778333332837,Cubic,205,Pa-3,0.0,False,True
mp-1848,Te2Ru,"Ru, Te",2,0.01169490333333556,Cubic,205,Pa-3,0.11409999999999965,False,False
mp-562,Sb2Pt,"Pt, Sb",2,0.0,Cubic,205,Pa-3,0.0,False,True
mp-28730,In7Cl9,"Cl, In",2,0.0,Cubic,205,Pa-3,2.1903000000000006,False,False
mp-567273,HfI4,"Hf, I",2,0.030013223500001907,Cubic,205,Pa-3,3.2851999999999997,False,False
mp-1212495,GeP2,"Ge, P",2,0.08825758611111034,Cubic,205,Pa-3,0.0,True,True
mp-2070,CoS2,"Co, S",2,0.0,Cubic,205,Pa-3,0.0,False,True
mp-2310,CdO2,"Cd, O",2,0.05581009208333576,Cubic,205,Pa-3,1.2535000000000003,False,False
mp-20905,OsS2,"Os, S",2,0.0,Cubic,205,Pa-3,0.0,False,True
mp-226,FeS2,"Fe, S",2,0.010058665833334146,Cubic,205,Pa-3,0.4571999999999994,False,False
mp-1196139,Mg3Sb2,"Mg, Sb",2,0.0,Cubic,206,Ia-3,1.3212000000000002,True,False
mp-776475,Al2O3,"Al, O",2,0.03503444474999906,Cubic,206,Ia-3,5.2156,True,False
mp-1045,Nd2O3,"Nd, O",2,0.0,Cubic,206,Ia-3,3.708,False,False
mp-504886,Gd2O3,"Gd, O",2,0.0,Cubic,206,Ia-3,2.9411000000000005,False,False
mp-771359,Cu2O3,"Cu, O",2,0.06570767400000044,Cubic,206,Ia-3,0.0,True,True
mp-844,Ca3N2,"Ca, N",2,0.0,Cubic,206,Ia-3,1.1111,False,False
mp-16705,Pr2O3,"O, Pr",2,0.0,Cubic,206,Ia-3,3.6593000000000004,False,False
mp-18337,Be3N2,"Be, N",2,0.0,Cubic,206,Ia-3,3.3145000000000007,False,False
mp-579224,P4S9,"P, S",2,0.0012280550961349945,Cubic,206,Ia-3,2.7121000000000004,False,False
mp-1658,Tl2O3,"O, Tl",2,0.0,Cubic,206,Ia-3,0.0,False,True
mp-9460,Zn3N2,"N, Zn",2,0.0,Cubic,206,Ia-3,0.0,False,True
mp-21579,V2O3,"O, V",2,0.0,Cubic,206,Ia-3,0.0,False,True
mp-1990,Mg3As2,"As, Mg",2,0.0,Cubic,206,Ia-3,1.431,False,False
mp-679,Er2O3,"Er, O",2,0.0,Cubic,206,Ia-3,3.9629000000000003,False,False
mp-986716,Sr3N2,"N, Sr",2,0.031059600000000742,Cubic,206,Ia-3,0.3481000000000001,True,False
mp-18529,Tm2S3,"S, Tm",2,0.0,Cubic,206,Ia-3,2.2738000000000005,False,False
mp-776873,Cr2O3,"Cr, O",2,0.046557772750000836,Cubic,206,Ia-3,1.8986999999999994,True,False
mp-1197170,Zn3P2,"P, Zn",2,0.023785270999999497,Cubic,206,Ia-3,0.3729,False,False
mp-637224,Pu2O3,"O, Pu",2,0.0,Cubic,206,Ia-3,0.0,False,True
mp-22598,In2O3,"In, O",2,0.0,Cubic,206,Ia-3,0.9288999999999996,False,False
mp-812,Ho2O3,"Ho, O",2,0.0,Cubic,206,Ia-3,3.9457999999999998,False,False
mp-567841,Be3P2,"Be, P",2,0.0,Cubic,206,Ia-3,0.8891,False,False
mp-22387,U2N3,"N, U",2,0.0,Cubic,206,Ia-3,0.0,False,True
mp-542313,Ce2O3,"Ce, O",2,0.0,Cubic,206,Ia-3,0.0,False,True
mp-2514,Mg3P2,"Mg, P",2,0.0,Cubic,206,Ia-3,1.6067999999999998,False,False
mp-1559,Mg3N2,"Mg, N",2,0.0,Cubic,206,Ia-3,1.5099999999999998,False,False
mp-553921,Pm2O3,"O, Pm",2,0.0,Cubic,206,Ia-3,3.7665999999999995,False,False
mp-1767,Tm2O3,"O, Tm",2,0.0,Cubic,206,Ia-3,3.9787,False,False
mp-510604,Mn2O3,"Mn, O",2,0.006783344624999188,Cubic,206,Ia-3,0.0,False,True
mp-1427,Lu2O3,"Lu, O",2,0.0,Cubic,206,Ia-3,4.021100000000001,False,False
mp-2345,Dy2O3,"Dy, O",2,0.0,Cubic,206,Ia-3,3.9254999999999995,False,False
mp-1197202,Cd3P2,"Cd, P",2,0.04275188875000069,Cubic,206,Ia-3,0.0,False,True
mp-2292,La2O3,"La, O",2,0.0017858232499996518,Cubic,206,Ia-3,3.5319000000000003,False,False
mp-565814,Fe2O3,"Fe, O",2,0.07129889575000004,Cubic,206,Ia-3,1.3902,False,False
mp-1203025,Np2N3,"N, Np",2,0.0,Cubic,206,Ia-3,0.0,False,True
mp-218,Sm2O3,"O, Sm",2,0.0,Cubic,206,Ia-3,3.7823,False,False
mp-216,Sc2O3,"O, Sc",2,0.0,Cubic,206,Ia-3,3.8235,False,False
mp-555740,SiO2,"O, Si",2,0.022304727222222098,Cubic,206,Ia-3,5.5865,True,False
mp-2652,Y2O3,"O, Y",2,0.0,Cubic,206,Ia-3,4.097300000000001,False,False
mp-1196079,Mg3Bi2,"Bi, Mg",2,0.010762412999997473,Cubic,206,Ia-3,0.3094000000000001,True,False
mp-1056,Tb2O3,"O, Tb",2,0.0,Cubic,206,Ia-3,3.9006,False,False
mp-1196003,Zn3As2,"As, Zn",2,0.024217807562500138,Cubic,206,Ia-3,0.13850000000000007,False,False
mp-1204405,Bi2O3,"Bi, O",2,0.09811691774999698,Cubic,206,Ia-3,1.9197000000000006,True,False
mp-24082,Ta2H,"H, Ta",2,0.0,Orthorhombic,21,C222,0.0,False,True
mp-1223901,InBi3,"Bi, In",2,0.0641679362500005,Orthorhombic,21,C222,0.0,True,True
mp-1223650,InHg3,"Hg, In",2,0.018780601250000473,Orthorhombic,21,C222,0.0,True,True
mp-1216836,V20As11,"As, V",2,0.04908483028225952,Orthorhombic,21,C222,0.0,True,True
mp-976920,Ni9S8,"Ni, S",2,0.0,Orthorhombic,21,C222,0.0,True,True
mp-556454,SiO2,"O, Si",2,0.011794062638889713,Orthorhombic,21,C222,5.5651,False,False
mp-1180309,Mn2Al3,"Al, Mn",2,0.028598418500000555,Cubic,213,P4_132,0.0,False,True
mp-639789,Fe2Re3,"Fe, Re",2,0.0,Cubic,213,P4_132,0.0,False,True
mp-14172,SrSi2,"Si, Sr",2,0.003090472499998498,Cubic,213,P4_132,0.0,False,True
mp-16094,Ba6Si25,"Ba, Si",2,0.053035565887099345,Cubic,213,P4_132,0.04319999999999968,False,False
mp-1205290,Zn6Ru,"Ru, Zn",2,0.0,Cubic,213,P4_132,0.011100000000000332,False,False
mp-625,Mg3Ru2,"Mg, Ru",2,0.0,Cubic,213,P4_132,0.0,False,True
mp-569965,Ba6Ge25,"Ba, Ge",2,0.023061469758064668,Cubic,213,P4_132,0.08230000000000004,False,False
mp-1189774,V3Ga2,"Ga, V",2,0.09108865966666535,Cubic,213,P4_132,0.0,False,True
mp-542730,V8C7,"C, V",2,0.007177742759258976,Cubic,212,P4_332,0.0,False,True
mp-496,SrSi2,"Si, Sr",2,0.0,Cubic,212,P4_332,0.0,False,True
mp-571066,K6Sn25,"K, Sn",2,0.0054246049481547765,Cubic,212,P4_332,0.6545000000000001,False,False
mp-7275,BaSi2,"Ba, Si",2,0.029830396249998614,Cubic,212,P4_332,0.0,False,True
mp-1094056,Si7Ge,"Ge, Si",2,0.0031988031250005378,Cubic,215,P-43m,0.4266999999999994,True,False
mp-570744,Si3As4,"As, Si",2,0.04686194750000183,Cubic,215,P-43m,0.40470000000000006,True,False
mp-1205133,Ti8In5,"In, Ti",2,0.03034354326923072,Cubic,215,P-43m,0.0,False,True
mp-12541,Ca4Hg9,"Ca, Hg",2,0.03249809865384634,Cubic,215,P-43m,0.0,False,True
mp-1197621,Ga4Cu9,"Cu, Ga",2,0.0,Cubic,215,P-43m,0.0,False,True
mp-504760,Li10Pb3,"Li, Pb",2,0.09865894050000223,Cubic,215,P-43m,0.0,False,True
mp-21975,In4Ag9,"Ag, In",2,0.0,Cubic,215,P-43m,0.0,False,True
mp-683917,In4Cu9,"Cu, In",2,0.023329456813186766,Cubic,215,P-43m,0.0,False,True
mp-570377,Sn3As4,"As, Sn",2,0.0,Cubic,215,P-43m,0.0,True,True
mp-571436,SnI4,"I, Sn",2,0.02799583925000171,Cubic,215,P-43m,1.5183,False,False
mp-1101754,Ti4H7,"H, Ti",2,0.0010864011363631576,Cubic,215,P-43m,0.0,True,True
mp-680545,In4Au9,"Au, In",2,0.019376369999996257,Cubic,215,P-43m,0.0,False,True
mp-569600,Ge3As4,"As, Ge",2,0.054482933690477964,Cubic,215,P-43m,0.1620999999999997,True,False
mp-593,Al4Cu9,"Al, Cu",2,0.0,Cubic,215,P-43m,0.0,False,True
mp-685129,Co17Se20,"Co, Se",2,0.056337090090091024,Triclinic,2,P-1,0.0,True,True
mp-1173644,Nb7Te6,"Nb, Te",2,0.003047133076924169,Triclinic,2,P-1,0.0,True,True
mp-1188070,Zn3Sn,"Sn, Zn",2,0.09880820500000098,Triclinic,2,P-1,0.0,True,True
mp-995202,HC6,"C, H",2,0.08574633205357074,Triclinic,2,P-1,0.0,True,True
mp-1217447,Te10Rh7,"Rh, Te",2,0.0,Triclinic,2,P-1,0.0,True,True
mp-685088,Sc12I25,"I, Sc",2,0.0,Triclinic,2,P-1,0.0,True,True
mp-30518,V6O11,"O, V",2,0.03927493066176524,Triclinic,2,P-1,0.4291999999999998,False,False
mp-1209298,RbP15,"P, Rb",2,0.0,Triclinic,2,P-1,1.5046000000000004,True,False
mp-757058,Mn2F7,"F, Mn",2,0.06471062805555672,Triclinic,2,P-1,0.0,True,True
mp-567537,TaI4,"I, Ta",2,0.005035815343746641,Triclinic,2,P-1,0.5572000000000001,False,False
mp-1192827,Eu8In3,"Eu, In",2,0.0,Triclinic,2,P-1,0.0,False,True
mp-556724,Ti7O13,"O, Ti",2,0.0008836374999994234,Triclinic,2,P-1,0.0,False,True
mp-29263,UBr5,"Br, U",2,0.0,Triclinic,2,P-1,0.5817,False,False
mp-555597,V4O7,"O, V",2,0.03710852875000192,Triclinic,2,P-1,0.5857000000000006,False,False
mp-1831269,SbF5,"F, Sb",2,0.0008603462499996439,Triclinic,2,P-1,3.6256,True,False
mp-684731,Ti13S24,"S, Ti",2,0.001580217567565434,Triclinic,2,P-1,0.0,True,True
mp-569522,MnP4,"Mn, P",2,0.0,Triclinic,2,P-1,0.47860000000000014,False,False
mp-12205,Ti4O7,"O, Ti",2,0.0,Triclinic,2,P-1,0.0,False,True
mp-1103512,Te2Ir,"Ir, Te",2,0.03200177691666539,Triclinic,2,P-1,0.0,False,True
mp-542334,V5O9,"O, V",2,0.029948650625000184,Triclinic,2,P-1,0.5147000000000004,False,False
mp-30923,Ga5Rh3,"Ga, Rh",2,0.0035614795535732213,Triclinic,2,P-1,0.0,False,True
mp-28400,P3Ru,"P, Ru",2,0.0,Triclinic,2,P-1,1.1445999999999996,False,False
mp-30290,Nd2Sn3,"Nd, Sn",2,0.0,Triclinic,2,P-1,0.0,False,True
mp-684800,Rh9Se20,"Rh, Se",2,0.02722424879310381,Triclinic,2,P-1,0.0,True,True
mp-1195243,AgP15,"Ag, P",2,0.016388745912699676,Triclinic,2,P-1,1.2132000000000005,False,False
mp-1079244,EuGa,"Eu, Ga",2,0.0,Triclinic,2,P-1,0.0,False,True
mp-648832,Sm10Pd21,"Pd, Sm",2,0.000446032580644129,Triclinic,2,P-1,0.0,True,True
mp-30275,BaP8,"Ba, P",2,0.008939126984128798,Triclinic,2,P-1,0.8917000000000002,False,False
mp-685069,Sc2Te3,"Sc, Te",2,0.0,Triclinic,2,P-1,0.0033000000000003027,True,False
mp-1213798,Cr6O11,"Cr, O",2,0.01808806705881061,Triclinic,2,P-1,0.0,True,True
mp-1900,CaAs3,"As, Ca",2,0.0,Triclinic,2,P-1,0.0,False,True
mp-1100795,ZrCl3,"Cl, Zr",2,0.0,Triclinic,2,P-1,0.3657999999999997,True,False
mp-656884,Ni9O10,"Ni, O",2,0.04665237342105222,Triclinic,2,P-1,0.0,True,True
mp-715333,Fe7O8,"Fe, O",2,0.06405054400000054,Triclinic,2,P-1,1.0723000000000003,True,False
mp-727322,SnS,"S, Sn",2,0.08517406874999978,Triclinic,2,P-1,1.4274,False,False
mp-558552,Ta6S,"S, Ta",2,0.012509170285712301,Triclinic,2,P-1,0.0,False,True
mp-1102447,ReTe2,"Re, Te",2,0.05841307100000126,Triclinic,2,P-1,0.6616999999999997,True,False
mp-729713,V2O5,"O, V",2,0.039591794285714244,Triclinic,2,P-1,2.2096,False,False
mp-1101148,Te16Rh9,"Rh, Te",2,0.0017200127999998926,Triclinic,2,P-1,0.0,True,True
mp-27240,UCl5,"Cl, U",2,0.0006667091666692215,Triclinic,2,P-1,0.6168,False,False
mp-541788,P2S5,"P, S",2,0.0,Triclinic,2,P-1,2.554,False,False
mp-640189,TiNi,"Ni, Ti",2,0.01896827916666677,Triclinic,2,P-1,0.0,False,True
mp-8825,Pr6O11,"O, Pr",2,0.06398068977941307,Triclinic,2,P-1,0.0,True,True
mp-27166,Hf3Ni7,"Hf, Ni",2,0.0323682494000046,Triclinic,2,P-1,0.0,False,True
mp-541112,ZrI4,"I, Zr",2,0.0479492713333336,Triclinic,2,P-1,2.0575,False,False
mp-753434,Mn3F10,"F, Mn",2,0.07523551249999993,Triclinic,2,P-1,0.03730000000000011,True,False
mp-21985,In3Cu7,"Cu, In",2,0.0007918041071448556,Triclinic,2,P-1,0.0,False,True
mp-1210365,Re3Br7,"Br, Re",2,0.0,Triclinic,2,P-1,0.35990000000000005,True,False
mp-23273,TeI,"I, Te",2,0.006595532500000445,Triclinic,2,P-1,0.7793000000000001,False,False
mp-1213091,In3Ni7,"In, Ni",2,0.02214374300000088,Triclinic,2,P-1,0.0,True,True
mp-1188913,CsS3,"Cs, S",2,0.0,Triclinic,2,P-1,1.6567,False,False
mp-684674,Cr5S8,"Cr, S",2,0.009286313076923847,Triclinic,2,P-1,0.0,True,True
mp-1190736,Ca8Al3,"Al, Ca",2,0.0,Triclinic,2,P-1,0.0,False,True
mp-556469,SiO2,"O, Si",2,0.01592845680555577,Triclinic,2,P-1,5.696199999999999,False,False
mp-11462,KHg,"Hg, K",2,0.0,Triclinic,2,P-1,0.0,False,True
mp-640818,Mo9O26,"Mo, O",2,0.03634528860714248,Triclinic,2,P-1,0.41220000000000034,True,False
mp-1213936,Ce2Sn3,"Ce, Sn",2,0.0,Triclinic,2,P-1,0.0,True,True
mp-673657,Ti7S12,"S, Ti",2,0.0,Triclinic,2,P-1,0.0,True,True
mp-1080797,CsHg,"Cs, Hg",2,0.0,Triclinic,2,P-1,0.0,False,True
mp-684710,Cu9S5,"Cu, S",2,0.04966975111607219,Triclinic,2,P-1,0.0,True,True
mp-705417,Fe11O12,"Fe, O",2,0.04960230413043476,Triclinic,2,P-1,1.3876,True,False
mp-556262,SiO2,"O, Si",2,0.018816912013889464,Triclinic,2,P-1,5.72,False,False
mp-27273,Ti9O17,"O, Ti",2,0.002355477115385085,Triclinic,2,P-1,0.0,False,True
mp-1375229,SnF3,"F, Sn",2,0.09761448999999978,Triclinic,2,P-1,1.8014000000000001,True,False
mp-1214889,Al11Re4,"Al, Re",2,0.0,Triclinic,2,P-1,0.0,True,True
mp-1226930,Cr19S30,"Cr, S",2,0.007960951836735397,Triclinic,2,P-1,0.0,True,True
mp-705424,Fe17O18,"Fe, O",2,0.04019917785714355,Triclinic,2,P-1,1.2205,True,False
mp-23315,IO3,"I, O",2,0.05310081374999864,Triclinic,2,P-1,1.9182000000000001,False,False
mp-1104255,Sb2F13,"F, Sb",2,0.0,Triclinic,2,P-1,0.0,False,True
mp-642824,SF6,"F, S",2,0.0019028238095240013,Triclinic,2,P-1,5.9607,False,False
mp-541656,AuCl2,"Au, Cl",2,0.0,Triclinic,2,P-1,0.8978999999999999,False,False
mp-32613,Ce5O9,"Ce, O",2,0.0,Triclinic,2,P-1,0.0,True,True
mp-1197857,WO3,"O, W",2,0.009820515312499722,Triclinic,2,P-1,1.6735000000000002,False,False
mp-766450,Ni6O7,"Ni, O",2,0.04711368769230884,Triclinic,2,P-1,0.0,True,True
mp-558855,Cr8O21,"Cr, O",2,0.032815543120690016,Triclinic,2,P-1,1.3738000000000001,False,False
mp-763787,Fe8O9,"Fe, O",2,0.06230382441176374,Triclinic,2,P-1,1.4134000000000002,True,False
mp-1209336,Pr2Sn3,"Pr, Sn",2,0.0,Triclinic,2,P-1,0.0,True,True
mp-1272338,V3O5,"O, V",2,0.007672148906252119,Triclinic,2,P-1,1.3117999999999999,True,False
mp-1103842,P4Os,"Os, P",2,0.0,Triclinic,2,P-1,1.3036000000000003,False,False
mp-2856,Mn4Al11,"Al, Mn",2,0.0,Triclinic,2,P-1,0.0,False,True
mp-1211329,La2Sn3,"La, Sn",2,0.0,Triclinic,2,P-1,0.0,True,True
mp-760168,V6F13,"F, V",2,0.07660523078947179,Triclinic,2,P-1,0.02740000000000009,True,False