material_id,formula,elements,num_elements,energy_above_hull,crystal_system,spacegroup_number,spacegroup_symbol,band_gap,theoretical,is_metal
mp-30481,CaPt5,"Ca, Pt",2,0.0,Hexagonal,191,P6/mmm,0.0,False,True
mp-993,DySi2,"Dy, Si",2,0.08710837133333627,Hexagonal,191,P6/mmm,0.0,False,True
mp-1731,LaCo5,"Co, La",2,0.03345996532608808,Hexagonal,191,P6/mmm,0.0,False,True
mp-569,NdCo5,"Co, Nd",2,0.01958596145833269,Hexagonal,191,P6/mmm,0.0,False,True
mp-19862,EuSi2,"Eu, Si",2,0.04630949999999956,Hexagonal,191,P6/mmm,0.0,False,True
mp-30725,YHg2,"Hg, Y",2,0.0,Hexagonal,191,P6/mmm,0.0,False,True
mp-2152,YNi5,"Ni, Y",2,0.0,Hexagonal,191,P6/mmm,0.0,False,True
mp-1037,PrPt5,"Pr, Pt",2,0.0,Hexagonal,191,P6/mmm,0.0,False,True
mp-571283,GdRh5,"Gd, Rh",2,0.07252726305555157,Hexagonal,191,P6/mmm,0.0,False,True
mp-2726,SrCu5,"Cu, Sr",2,0.0,Hexagonal,191,P6/mmm,0.0,False,True
mp-1145,TiB2,"B, Ti",2,0.0,Hexagonal,191,P6/mmm,0.0,False,True
mp-30627,DyZn5,"Dy, Zn",2,0.023859816833333714,Hexagonal,191,P6/mmm,0.0,False,True
mp-1077071,GdCo5,"Co, Gd",2,0.022866394117382782,Hexagonal,191,P6/mmm,0.0,False,True
mp-1140,NdCu5,"Cu, Nd",2,0.0,Hexagonal,191,P6/mmm,0.0,False,True
mp-1567,ThNi5,"Ni, Th",2,0.0,Hexagonal,191,P6/mmm,0.0,False,True
mp-11491,LuNi5,"Lu, Ni",2,0.0,Hexagonal,191,P6/mmm,0.0,False,True
mp-2422,ErGa2,"Er, Ga",2,0.0,Hexagonal,191,P6/mmm,0.0,False,True
mp-11267,BaHg2,"Ba, Hg",2,0.0,Hexagonal,191,P6/mmm,0.0,True,True
mp-585,MnB2,"B, Mn",2,0.06919970777777884,Hexagonal,191,P6/mmm,0.0,False,True
mp-8602,SiO2,"O, Si",2,0.010664375196077103,Hexagonal,191,P6/mmm,5.5296,False,False
mp-1514,UB2,"B, U",2,0.0,Hexagonal,191,P6/mmm,0.0,False,True
mp-7497,ThSi2,"Si, Th",2,0.0,Hexagonal,191,P6/mmm,0.0,False,True
mp-1814,BaAg5,"Ag, Ba",2,0.0,Hexagonal,191,P6/mmm,0.0,False,True
mp-1472,ZrB2,"B, Zr",2,0.0,Hexagonal,191,P6/mmm,0.0,False,True
mp-2613,LaCu5,"Cu, La",2,0.0,Hexagonal,191,P6/mmm,0.0,False,True
mp-2317,LaNi5,"La, Ni",2,0.0,Hexagonal,191,P6/mmm,0.0,False,True
mp-11283,ZrBe5,"Be, Zr",2,0.0,Hexagonal,191,P6/mmm,0.0,False,True
mp-1025,ThAu2,"Au, Th",2,0.0,Hexagonal,191,P6/mmm,0.0,False,True
mp-30506,CeHg2,"Ce, Hg",2,0.0,Hexagonal,191,P6/mmm,0.0,False,True
mp-182,SrGa2,"Ga, Sr",2,0.0,Hexagonal,191,P6/mmm,0.0,False,True
mp-1025137,NpNi5,"Ni, Np",2,0.0,Hexagonal,191,P6/mmm,0.0,True,True
mp-2424,LaZn5,"La, Zn",2,0.003247978166665888,Hexagonal,191,P6/mmm,0.0,False,True
mp-1252,ZrBe2,"Be, Zr",2,0.028948296666665208,Hexagonal,191,P6/mmm,0.0,False,True
mp-680222,SiO2,"O, Si",2,0.03155403868055373,Hexagonal,191,P6/mmm,5.5951,True,False
mp-2812,HoFe5,"Fe, Ho",2,0.0022928855555548466,Hexagonal,191,P6/mmm,0.0,False,True
mp-2524,NdGa2,"Ga, Nd",2,0.0,Hexagonal,191,P6/mmm,0.0,False,True
mp-668,PrGa2,"Ga, Pr",2,0.0,Hexagonal,191,P6/mmm,0.0,False,True
mp-2797,YCu5,"Cu, Y",2,0.0,Hexagonal,191,P6/mmm,0.0,False,True
mp-309,ThAg2,"Ag, Th",2,0.0,Hexagonal,191,P6/mmm,0.0,False,True
mp-11367,DyHg2,"Dy, Hg",2,0.0,Hexagonal,191,P6/mmm,0.0,False,True
mp-1429,SmCo5,"Co, Sm",2,0.010960904812500338,Hexagonal,191,P6/mmm,0.0,False,True
mp-2251,Li3N,"Li, N",2,0.0,Hexagonal,191,P6/mmm,0.9840000000000001,False,False
mp-2051,LaCu2,"Cu, La",2,0.0,Hexagonal,191,P6/mmm,0.0,False,True
mp-2410,SrAg5,"Ag, Sr",2,0.0,Hexagonal,191,P6/mmm,0.0,False,True
mp-30507,CeIr5,"Ce, Ir",2,0.05629144805555519,Hexagonal,191,P6/mmm,0.0,False,True
mp-11369,ErHg2,"Er, Hg",2,0.006062129999996557,Hexagonal,191,P6/mmm,0.0,False,True
mp-11461,HoHg2,"Hg, Ho",2,0.0011745750000002886,Hexagonal,191,P6/mmm,0.0,False,True
mp-7701,BaSi2,"Ba, Si",2,0.06807190375000083,Hexagonal,191,P6/mmm,0.0,False,True
mp-580,PuB2,"B, Pu",2,0.019714249583330457,Hexagonal,191,P6/mmm,0.0,False,True
mp-11382,NdFe5,"Fe, Nd",2,0.03966501541666556,Hexagonal,191,P6/mmm,0.0,False,True
mp-1219,BaGa2,"Ba, Ga",2,0.0,Hexagonal,191,P6/mmm,0.0,False,True
mp-2568,YSi2,"Si, Y",2,0.06262060833333294,Hexagonal,191,P6/mmm,0.0,False,True
mp-1001581,LiC6,"C, Li",2,0.0024060769047622443,Hexagonal,191,P6/mmm,0.0,False,True
mp-981212,TmMg2,"Mg, Tm",2,0.021695763333333673,Hexagonal,191,P6/mmm,0.0,True,True
mp-774,CaNi5,"Ca, Ni",2,0.0004997670833333245,Hexagonal,191,P6/mmm,0.0,False,True
mp-1206486,SrIn5,"In, Sr",2,0.08723946740740729,Hexagonal,191,P6/mmm,0.0,True,True
mp-2689,ThFe5,"Fe, Th",2,0.0,Hexagonal,191,P6/mmm,0.0,False,True
mp-11363,TbCu5,"Cu, Tb",2,0.0,Hexagonal,191,P6/mmm,0.0,False,True
mp-809,ThCo5,"Co, Th",2,0.03629922616666548,Hexagonal,191,P6/mmm,0.0,False,True
mp-2359,NdPt5,"Nd, Pt",2,0.0,Hexagonal,191,P6/mmm,0.0,False,True
mp-1377,ThCu2,"Cu, Th",2,0.0,Hexagonal,191,P6/mmm,0.0,False,True
mp-220,ThNi2,"Ni, Th",2,0.0,Hexagonal,191,P6/mmm,0.0,False,True
mp-20965,GdCd2,"Cd, Gd",2,0.0,Hexagonal,191,P6/mmm,0.0,False,True
mp-570673,ScNi5,"Ni, Sc",2,0.008523272916668212,Hexagonal,191,P6/mmm,0.0,False,True
mp-1914,YGa2,"Ga, Y",2,0.0,Hexagonal,191,P6/mmm,0.0,False,True
mp-669,ThAl2,"Al, Th",2,0.0,Hexagonal,191,P6/mmm,0.0,False,True
mp-2066,EuCu5,"Cu, Eu",2,0.0,Hexagonal,191,P6/mmm,0.0,False,True
mp-19849,NpGa2,"Ga, Np",2,0.019245622361111714,Hexagonal,191,P6/mmm,0.0,False,True
mp-1025223,Hf4Al3,"Al, Hf",2,0.0,Hexagonal,191,P6/mmm,0.0,False,True
mp-2145,ErSi2,"Er, Si",2,0.08951520666666823,Hexagonal,191,P6/mmm,0.0,False,True
mp-1025297,SmC6,"C, Sm",2,0.04874392482142831,Hexagonal,191,P6/mmm,0.0,True,True
mp-542777,CePt5,"Ce, Pt",2,0.0,Hexagonal,191,P6/mmm,0.0,False,True
mp-2057,DyB2,"B, Dy",2,0.0,Hexagonal,191,P6/mmm,0.0,False,True
mp-1752,HoSi2,"Ho, Si",2,0.09410235833333402,Hexagonal,191,P6/mmm,0.0,False,True
mp-1025030,ErPt5,"Er, Pt",2,0.030797769999999502,Hexagonal,191,P6/mmm,0.0,True,True
mp-1491,VB2,"B, V",2,0.0,Hexagonal,191,P6/mmm,0.0,False,True
mp-11466,NaHg2,"Hg, Na",2,0.0,Hexagonal,191,P6/mmm,0.0,False,True
mp-2436,EuZn5,"Eu, Zn",2,0.0,Hexagonal,191,P6/mmm,0.0,False,True
mp-569264,NdIr5,"Ir, Nd",2,0.07814601666666476,Hexagonal,191,P6/mmm,0.0,False,True
mp-568654,PrAg2,"Ag, Pr",2,0.01583383666666771,Hexagonal,191,P6/mmm,0.0,False,True
mp-7496,ThZn2,"Th, Zn",2,0.0,Hexagonal,191,P6/mmm,0.0,False,True
mp-2740,ErCo5,"Co, Er",2,0.024626409343434297,Hexagonal,191,P6/mmm,0.0,False,True
mp-7751,PuPt5,"Pt, Pu",2,0.0,Hexagonal,191,P6/mmm,0.0,False,True
mp-19839,LaGa2,"Ga, La",2,0.0,Hexagonal,191,P6/mmm,0.0,False,True
mp-2551,DyCo5,"Co, Dy",2,0.01958525106060449,Hexagonal,191,P6/mmm,0.0,False,True
mp-374,CrB2,"B, Cr",2,0.06712516166666482,Hexagonal,191,P6/mmm,0.0,False,True
mp-1542,YB2,"B, Y",2,0.0,Hexagonal,191,P6/mmm,0.0,False,True
mp-425,GdB2,"B, Gd",2,0.06832967733333106,Hexagonal,191,P6/mmm,0.0,False,True
mp-2606,BaPd5,"Ba, Pd",2,0.0,Hexagonal,191,P6/mmm,0.0,False,True
mp-2370,PrNi5,"Ni, Pr",2,0.0,Hexagonal,191,P6/mmm,0.0,False,True
mp-11294,DyCd2,"Cd, Dy",2,0.0,Hexagonal,191,P6/mmm,0.0,False,True
mp-30497,TbCd2,"Cd, Tb",2,0.0,Hexagonal,191,P6/mmm,0.0,False,True
mp-12602,PrZn5,"Pr, Zn",2,0.007804855052085724,Hexagonal,191,P6/mmm,0.0,False,True
mp-11419,ThGa2,"Ga, Th",2,0.005273628333334557,Hexagonal,191,P6/mmm,0.0,False,True
mp-21315,PuNi5,"Ni, Pu",2,0.0,Hexagonal,191,P6/mmm,0.0,False,True
mp-1083,NpB2,"B, Np",2,0.0,Hexagonal,191,P6/mmm,0.0,False,True
mp-1824,NdNi5,"Nd, Ni",2,0.0,Hexagonal,191,P6/mmm,0.0,False,True
mp-450,NbB2,"B, Nb",2,0.0,Hexagonal,191,P6/mmm,0.0,False,True
mp-2209,CeGa2,"Ce, Ga",2,0.0,Hexagonal,191,P6/mmm,0.0,False,True
mp-636253,GdCu5,"Cu, Gd",2,0.0,Hexagonal,191,P6/mmm,0.0,False,True
mp-1200,TbCo5,"Co, Tb",2,0.017231782727272993,Hexagonal,191,P6/mmm,0.0,False,True
mp-2324,PrCd2,"Cd, Pr",2,0.0,Hexagonal,191,P6/mmm,0.0,True,True
mp-638,SrZn5,"Sr, Zn",2,0.024680062499999877,Hexagonal,191,P6/mmm,0.0,False,True
mp-11565,YRh5,"Rh, Y",2,0.08311612055555528,Hexagonal,191,P6/mmm,0.0,False,True
mp-1566,SmFe5,"Fe, Sm",2,0.006497710833333059,Hexagonal,191,P6/mmm,0.0,False,True
mp-800,TmB2,"B, Tm",2,0.0,Hexagonal,191,P6/mmm,0.0,False,True
mp-1805,ErRh5,"Er, Rh",2,0.08791305583333386,Hexagonal,191,P6/mmm,0.0,False,True
mp-22217,CePd5,"Ce, Pd",2,0.0809545991666667,Hexagonal,191,P6/mmm,0.0,False,True
mp-1008865,NdCd2,"Cd, Nd",2,0.0,Hexagonal,191,P6/mmm,0.0,True,True
mp-30808,TbNi5,"Ni, Tb",2,0.0,Hexagonal,191,P6/mmm,0.0,False,True
mp-30801,NdZn5,"Nd, Zn",2,0.0027502346969687785,Hexagonal,191,P6/mmm,0.0,False,True
mp-11311,TmCd2,"Cd, Tm",2,0.0,Hexagonal,191,P6/mmm,0.0,True,True
mp-477,SmGa2,"Ga, Sm",2,0.0,Hexagonal,191,P6/mmm,0.0,False,True
mp-1734,CaZn5,"Ca, Zn",2,0.0,Hexagonal,191,P6/mmm,0.0,False,True
mp-1298,KAu5,"Au, K",2,0.0,Hexagonal,191,P6/mmm,0.0,False,True
mp-1994,HfB2,"B, Hf",2,0.0,Hexagonal,191,P6/mmm,0.0,False,True
mp-569927,ErZn5,"Er, Zn",2,0.027619746055555616,Hexagonal,191,P6/mmm,0.0,False,True
mp-442,RhPb,"Pb, Rh",2,0.0,Hexagonal,191,P6/mmm,0.0,False,True
mp-227,SmCu5,"Cu, Sm",2,0.0,Hexagonal,191,P6/mmm,0.0,False,True
mp-1021323,LiC12,"C, Li",2,0.0,Hexagonal,191,P6/mmm,0.0,False,True
mp-1910,CeNi5,"Ce, Ni",2,0.0,Hexagonal,191,P6/mmm,0.0,False,True
mp-11301,HoCd2,"Cd, Ho",2,0.0,Hexagonal,191,P6/mmm,0.0,False,True
mp-30469,TlBi2,"Bi, Tl",2,0.0,Hexagonal,191,P6/mmm,0.0,False,True
mp-11463,LaHg2,"Hg, La",2,0.0,Hexagonal,191,P6/mmm,0.0,False,True
mp-21305,GdNi5,"Gd, Ni",2,0.0,Hexagonal,191,P6/mmm,0.0,False,True
mp-19876,InNi,"In, Ni",2,0.0,Hexagonal,191,P6/mmm,0.0,False,True
mp-21260,FeSn,"Fe, Sn",2,0.0,Hexagonal,191,P6/mmm,0.0,False,True
mp-30585,HoCu5,"Cu, Ho",2,0.0,Hexagonal,191,P6/mmm,0.0,False,True
mp-11296,ErCd2,"Cd, Er",2,0.0,Hexagonal,191,P6/mmm,0.0,False,True
mp-865732,LuCd2,"Cd, Lu",2,0.0,Hexagonal,191,P6/mmm,0.0,True,True
mp-1260,SrPd5,"Pd, Sr",2,0.0,Hexagonal,191,P6/mmm,0.0,False,True
mp-545665,WO3,"O, W",2,0.01092049864583089,Hexagonal,191,P6/mmm,1.1401,False,False
mp-11562,TbRh5,"Rh, Tb",2,0.070092093333332,Hexagonal,191,P6/mmm,0.0,False,True
mp-1832,LaPt5,"La, Pt",2,0.0,Hexagonal,191,P6/mmm,0.0,False,True
mp-22311,EuNi5,"Eu, Ni",2,0.0,Hexagonal,191,P6/mmm,0.0,False,True
mp-2462,PrCu5,"Cu, Pr",2,0.0,Hexagonal,191,P6/mmm,0.0,False,True
mp-728,Li2Pd,"Li, Pd",2,0.0,Hexagonal,191,P6/mmm,0.0,False,True
mp-1179,DyNi5,"Dy, Ni",2,0.0,Hexagonal,191,P6/mmm,0.0,False,True
mp-568006,DyFe5,"Dy, Fe",2,0.00039498666666748505,Hexagonal,191,P6/mmm,0.0,False,True
mp-542568,EuAg5,"Ag, Eu",2,0.0,Hexagonal,191,P6/mmm,0.0,False,True
mp-394,CeZn5,"Ce, Zn",2,0.010561498585860196,Hexagonal,191,P6/mmm,0.0,False,True
mp-19773,GdGa2,"Ga, Gd",2,0.0,Hexagonal,191,P6/mmm,0.0,False,True
mp-992,CaGa2,"Ca, Ga",2,0.016981658333333982,Hexagonal,191,P6/mmm,0.0,False,True
mp-1709,U2Ti,"Ti, U",2,0.0,Hexagonal,191,P6/mmm,0.0,False,True
mp-21200,PuGa2,"Ga, Pu",2,0.0,Hexagonal,191,P6/mmm,0.0,False,True
mp-1831,SrAu5,"Au, Sr",2,0.0,Hexagonal,191,P6/mmm,0.0,False,True
mp-532105,SiO2,"O, Si",2,0.011704331234566823,Hexagonal,191,P6/mmm,5.559,True,False
mp-11277,ScBe5,"Be, Sc",2,0.0,Hexagonal,191,P6/mmm,0.0,False,True
mp-510098,EuAu5,"Au, Eu",2,0.0,Hexagonal,191,P6/mmm,0.0,False,True
mp-1524385,CeAg2,"Ag, Ce",2,0.001380878333332447,Hexagonal,191,P6/mmm,0.0,True,True
mp-2684,TbGa2,"Ga, Tb",2,0.0,Hexagonal,191,P6/mmm,0.0,False,True
mp-811,BaPt5,"Ba, Pt",2,0.0,Hexagonal,191,P6/mmm,0.0,False,True
mp-12072,UAu2,"Au, U",2,0.0,Hexagonal,191,P6/mmm,0.0,False,True
mp-567891,NdAg2,"Ag, Nd",2,0.01499643333333367,Hexagonal,191,P6/mmm,0.0,False,True
mp-1209,RbAu5,"Au, Rb",2,0.0,Hexagonal,191,P6/mmm,0.0,False,True
mp-764,CeCo5,"Ce, Co",2,0.028969368333331857,Hexagonal,191,P6/mmm,0.0,False,True
mp-30495,SmCd2,"Cd, Sm",2,0.0,Hexagonal,191,P6/mmm,0.0,True,True
mp-980,USi2,"Si, U",2,0.0,Hexagonal,191,P6/mmm,0.0,False,True
mp-12055,LaCd2,"Cd, La",2,0.0,Hexagonal,191,P6/mmm,0.0,True,True
mp-1183833,DyMg2,"Dy, Mg",2,0.01223233999999973,Hexagonal,191,P6/mmm,0.0,True,True
mp-11468,NdHg2,"Hg, Nd",2,0.0,Hexagonal,191,P6/mmm,0.0,True,True
mp-30885,YZn5,"Y, Zn",2,0.0,Hexagonal,191,P6/mmm,0.0,False,True
mp-11526,TmNi5,"Ni, Tm",2,0.0,Hexagonal,191,P6/mmm,0.0,False,True
mp-2170,Li2Pt,"Li, Pt",2,0.0,Hexagonal,191,P6/mmm,0.0,False,True
mp-28861,CsC8,"C, Cs",2,0.0,Hexagonal,191,P6/mmm,0.0,False,True
mp-30364,BaAu5,"Au, Ba",2,0.0,Hexagonal,191,P6/mmm,0.0,False,True
mp-944,AlB2,"Al, B",2,0.01683494079999992,Hexagonal,191,P6/mmm,0.0,False,True
mp-2435,HoCo5,"Co, Ho",2,0.02198688242424307,Hexagonal,191,P6/mmm,0.0,False,True
mp-22478,FeGe,"Fe, Ge",2,0.0,Hexagonal,191,P6/mmm,0.0,False,True
mp-2837,PrCo5,"Co, Pr",2,0.024333104228395186,Hexagonal,191,P6/mmm,0.0,False,True
mp-1241,BaAg2,"Ag, Ba",2,0.0,Hexagonal,191,P6/mmm,0.0,True,True
mp-853,ErNi5,"Er, Ni",2,0.0,Hexagonal,191,P6/mmm,0.0,False,True
mp-11317,CeFe5,"Ce, Fe",2,0.03248391083333502,Hexagonal,191,P6/mmm,0.0,False,True
mp-30753,LaPd5,"La, Pd",2,0.0,Hexagonal,191,P6/mmm,0.0,False,True
mp-1207109,SmHg2,"Hg, Sm",2,0.0,Hexagonal,191,P6/mmm,0.0,True,True
mp-965,TbB2,"B, Tb",2,0.0,Hexagonal,191,P6/mmm,0.0,False,True
mp-21168,EuGa2,"Eu, Ga",2,0.0,Hexagonal,191,P6/mmm,0.0,False,True
mp-2827,YCo5,"Co, Y",2,0.011988457820512721,Hexagonal,191,P6/mmm,0.0,False,True
mp-1535,TbSi2,"Si, Tb",2,0.049383984166667005,Hexagonal,191,P6/mmm,0.0,False,True
mp-866189,CeCd2,"Cd, Ce",2,0.0,Hexagonal,191,P6/mmm,0.0,True,True
mp-772,TmSi2,"Si, Tm",2,0.09862506833333384,Hexagonal,191,P6/mmm,0.0,False,True
mp-11826,CaPd5,"Ca, Pd",2,0.0,Hexagonal,191,P6/mmm,0.0,False,True
mp-2553,HfBe2,"Be, Hf",2,0.012765049333336442,Hexagonal,191,P6/mmm,0.0,False,True
mp-10186,PuSi2,"Pu, Si",2,0.0,Hexagonal,191,P6/mmm,0.0,False,True
mp-1108,TaB2,"B, Ta",2,0.0,Hexagonal,191,P6/mmm,0.0,False,True
mp-1606,NbAu2,"Au, Nb",2,0.0,Hexagonal,191,P6/mmm,0.0,False,True
mp-763,MgB2,"B, Mg",2,0.0,Hexagonal,191,P6/mmm,0.0,False,True
mp-1225307,DyCu5,"Cu, Dy",2,0.0,Hexagonal,191,P6/mmm,0.0,True,True
mp-2025,HfBe5,"Be, Hf",2,0.0,Hexagonal,191,P6/mmm,0.0,False,True
mp-1075,SmNi5,"Ni, Sm",2,0.0,Hexagonal,191,P6/mmm,0.0,False,True
mp-761,CeCu5,"Ce, Cu",2,0.0026642436458335084,Hexagonal,191,P6/mmm,0.0,False,True
mp-1384,LaIr5,"Ir, La",2,0.06472783666666793,Hexagonal,191,P6/mmm,0.0,False,True
mp-12752,Zr4Al3,"Al, Zr",2,0.0,Hexagonal,191,P6/mmm,0.0,False,True
mp-1188999,Ce5Sb3,"Ce, Sb",2,0.01812574437500203,Hexagonal,193,P6_3/mcm,0.0,False,True
mp-1105965,Er5Tl3,"Er, Tl",2,0.0,Hexagonal,193,P6_3/mcm,0.0,False,True
mp-510262,Cs3O,"Cs, O",2,0.0,Hexagonal,193,P6_3/mcm,0.0,False,True
mp-1189573,Hf5Ir3,"Hf, Ir",2,0.013379535624993721,Hexagonal,193,P6_3/mcm,0.0,False,True
mp-1190304,V5Ga3,"Ga, V",2,0.08278061909722112,Hexagonal,193,P6_3/mcm,0.0,False,True
mp-1189874,Sm5Sn3,"Sm, Sn",2,0.0,Hexagonal,193,P6_3/mcm,0.0,False,True
mp-206,Tb5Si3,"Si, Tb",2,0.0,Hexagonal,193,P6_3/mcm,0.0,False,True
mp-449,Fe5Si3,"Fe, Si",2,0.033978619374999575,Hexagonal,193,P6_3/mcm,0.0,False,True
mp-1105551,Tb5Rh3,"Rh, Tb",2,0.014364826267859065,Hexagonal,193,P6_3/mcm,0.0,False,True
mp-1210556,Lu5In4,"In, Lu",2,0.0,Hexagonal,193,P6_3/mcm,0.0,True,True
mp-570483,V5Si3,"Si, V",2,0.0448894762499954,Hexagonal,193,P6_3/mcm,0.0,False,True
mp-22871,ZrCl3,"Cl, Zr",2,0.010707283749999519,Hexagonal,193,P6_3/mcm,0.0,False,True
mp-1105838,Nd5Bi3,"Bi, Nd",2,0.0,Hexagonal,193,P6_3/mcm,0.0,False,True
mp-31167,Er5Si3,"Er, Si",2,0.0,Hexagonal,193,P6_3/mcm,0.0,False,True
mp-10736,Ba3N,"Ba, N",2,0.0,Hexagonal,193,P6_3/mcm,0.0,False,True
mp-1812,Hg5Au6,"Au, Hg",2,0.0,Hexagonal,193,P6_3/mcm,0.0,False,True
mp-1189848,Tb5Bi3,"Bi, Tb",2,0.0,Hexagonal,193,P6_3/mcm,0.0,False,True
mp-1190343,Er5Pb3,"Er, Pb",2,0.0,Hexagonal,193,P6_3/mcm,0.0,False,True
mp-1105843,Ce5Sn3,"Ce, Sn",2,0.048611455624994804,Hexagonal,193,P6_3/mcm,0.0,False,True
mp-1181553,Dy5Tl3,"Dy, Tl",2,0.0,Hexagonal,193,P6_3/mcm,0.0,False,True
mp-2836,Dy5Si3,"Dy, Si",2,0.0,Hexagonal,193,P6_3/mcm,0.0,False,True
mp-1205299,TcBr3,"Br, Tc",2,0.04151677085937422,Hexagonal,193,P6_3/mcm,0.0,False,True
mp-17706,Zr5Ge3,"Ge, Zr",2,0.0,Hexagonal,193,P6_3/mcm,0.0,False,True
mp-15965,Hf5Si3,"Hf, Si",2,0.03817166562499352,Hexagonal,193,P6_3/mcm,0.0,False,True
mp-30407,Mg13Au41,"Au, Mg",2,0.0,Hexagonal,193,P6_3/mcm,0.0,False,True
mp-510521,Y5Ga3,"Ga, Y",2,0.03427095898437571,Hexagonal,193,P6_3/mcm,0.0,False,True
mp-17013,Ta5Ge3,"Ge, Ta",2,0.08764508249999636,Hexagonal,193,P6_3/mcm,0.0,False,True
mp-1189839,Dy5Pt3,"Dy, Pt",2,0.038156551249997506,Hexagonal,193,P6_3/mcm,0.0,False,True
mp-1188086,Ho5Ir3,"Ho, Ir",2,0.03787232906249827,Hexagonal,193,P6_3/mcm,0.0,False,True
mp-1106365,Th5Pb4,"Pb, Th",2,0.0,Hexagonal,193,P6_3/mcm,0.0,False,True
mp-10045,Ba5As3,"As, Ba",2,0.00924069399038574,Hexagonal,193,P6_3/mcm,0.0,False,True
mp-1101229,V2F9,"F, V",2,0.06697537477272686,Hexagonal,193,P6_3/mcm,0.059499999999999886,True,False
mp-9909,Ba5Sb3,"Ba, Sb",2,0.0,Hexagonal,193,P6_3/mcm,0.0,False,True
mp-30623,Dy5Sn3,"Dy, Sn",2,0.0,Hexagonal,193,P6_3/mcm,0.0,False,True
mp-7234,Nb5N6,"N, Nb",2,0.0,Hexagonal,193,P6_3/mcm,0.0,False,True
mp-11908,Lu5Si3,"Lu, Si",2,0.0,Hexagonal,193,P6_3/mcm,0.0,False,True
mp-1208252,Ti5As3,"As, Ti",2,0.013690543437499869,Hexagonal,193,P6_3/mcm,0.0,True,True
mp-29620,Sr5Bi3,"Bi, Sr",2,0.00014172718749705382,Hexagonal,193,P6_3/mcm,0.0,False,True
mp-1188953,Zr5Pt3,"Pt, Zr",2,4.6259374997248415e-05,Hexagonal,193,P6_3/mcm,0.0,False,True
mp-20847,Ti5Sn3,"Sn, Ti",2,0.0,Hexagonal,193,P6_3/mcm,0.0,False,True
mp-11465,Mg5Hg3,"Hg, Mg",2,0.0,Hexagonal,193,P6_3/mcm,0.0,False,True
mp-567412,Y5Sn3,"Sn, Y",2,0.0,Hexagonal,193,P6_3/mcm,0.0,False,True
mp-17751,Y5Ge3,"Ge, Y",2,0.0,Hexagonal,193,P6_3/mcm,0.0,False,True
mp-1188469,La5Ge3,"Ge, La",2,0.0,Hexagonal,193,P6_3/mcm,0.0,False,True
mp-1189141,Ho5Pt3,"Ho, Pt",2,0.023405277395831092,Hexagonal,193,P6_3/mcm,0.0,False,True
mp-510691,Hf5Sn4,"Hf, Sn",2,0.0,Hexagonal,193,P6_3/mcm,0.0,False,True
mp-571143,TiCl3,"Cl, Ti",2,0.01593067166664852,Hexagonal,193,P6_3/mcm,0.0,False,True
mp-1105548,Pr5Bi3,"Bi, Pr",2,0.0,Hexagonal,193,P6_3/mcm,0.0,False,True
mp-30730,Ho5Pb3,"Ho, Pb",2,0.0,Hexagonal,193,P6_3/mcm,0.0,False,True
mp-18032,Nb5Ga4,"Ga, Nb",2,0.021052528412699445,Hexagonal,193,P6_3/mcm,0.0,False,True
mp-1189039,Er5In3,"Er, In",2,0.0,Hexagonal,193,P6_3/mcm,0.0,False,True
mp-12467,Ca5Sb3,"Ca, Sb",2,0.011565094999999914,Hexagonal,193,P6_3/mcm,0.0,False,True
mp-1188632,Tm5In3,"In, Tm",2,0.0140814460416685,Hexagonal,193,P6_3/mcm,0.0,False,True
mp-1106032,Ho5Ge3,"Ge, Ho",2,0.0,Hexagonal,193,P6_3/mcm,0.0,False,True
mp-1188292,Y5Pb3,"Pb, Y",2,0.0,Hexagonal,193,P6_3/mcm,0.0,False,True
mp-505302,U5Ge4,"Ge, U",2,0.038993983750003736,Hexagonal,193,P6_3/mcm,0.0,False,True
mp-2610,Tb5Ge3,"Ge, Tb",2,0.0,Hexagonal,193,P6_3/mcm,0.0,False,True
mp-1106314,Th5Bi3,"Bi, Th",2,0.0,Hexagonal,193,P6_3/mcm,0.0,False,True
mp-1106373,Sm5Si3,"Si, Sm",2,0.0,Hexagonal,193,P6_3/mcm,0.0,False,True
mp-1188779,Nd5Sb3,"Nd, Sb",2,0.0,Hexagonal,193,P6_3/mcm,0.0,False,True
mp-30675,Ti5Ga4,"Ga, Ti",2,0.011488576388890337,Hexagonal,193,P6_3/mcm,0.0,False,True
mp-22892,RuBr3,"Br, Ru",2,0.0,Hexagonal,193,P6_3/mcm,0.0,False,True
mp-1106250,Gd5Pb3,"Gd, Pb",2,0.0,Hexagonal,193,P6_3/mcm,0.0,False,True
mp-1105908,La5Sn3,"La, Sn",2,0.001225076874999509,Hexagonal,193,P6_3/mcm,0.0,False,True
mp-1189245,Tm5Rh3,"Rh, Tm",2,0.0,Hexagonal,193,P6_3/mcm,0.0,False,True
mp-11368,Er5Ga3,"Er, Ga",2,0.031720624713539536,Hexagonal,193,P6_3/mcm,0.0,False,True
mp-1106169,Zr5Ga3,"Ga, Zr",2,0.0,Hexagonal,193,P6_3/mcm,0.0,False,True
mp-1105869,Tm5Pt3,"Pt, Tm",2,0.0325974850000037,Hexagonal,193,P6_3/mcm,0.0,False,True
mp-568151,Ti5Ge3,"Ge, Ti",2,0.0,Hexagonal,193,P6_3/mcm,0.0,False,True
mp-1188697,Zr5Ir3,"Ir, Zr",2,0.011442138333336516,Hexagonal,193,P6_3/mcm,0.0,False,True
mp-570722,NbI3,"I, Nb",2,0.04628211046875208,Hexagonal,193,P6_3/mcm,0.0,False,True
mp-1111,Mn5Si3,"Mn, Si",2,0.0,Hexagonal,193,P6_3/mcm,0.0,False,True
mp-30735,Ho5Sn3,"Ho, Sn",2,0.0,Hexagonal,193,P6_3/mcm,0.0,False,True
mp-1106322,Lu5Tl3,"Lu, Tl",2,0.0,Hexagonal,193,P6_3/mcm,0.0,False,True
mp-510503,Nd5Sn3,"Nd, Sn",2,0.0,Hexagonal,193,P6_3/mcm,0.0,False,True
mp-1106145,Ce5Si3,"Ce, Si",2,0.06796467312499743,Hexagonal,193,P6_3/mcm,0.0,False,True
mp-1106152,Nd5Pb3,"Nd, Pb",2,0.0,Hexagonal,193,P6_3/mcm,0.0,False,True
mp-1190256,Pr5Sb3,"Pr, Sb",2,0.0,Hexagonal,193,P6_3/mcm,0.0,False,True
mp-570816,Ho5Ga3,"Ga, Ho",2,0.03492899765625168,Hexagonal,193,P6_3/mcm,0.0,False,True
mp-972463,Tm5Sb3,"Sb, Tm",2,0.010170659999999998,Hexagonal,193,P6_3/mcm,0.0,False,True