material_id,formula,elements,num_elements,energy_above_hull,crystal_system,spacegroup_number,spacegroup_symbol,band_gap,theoretical,is_metal
mp-600016,SiO2,"O, Si",2,0.02060036201388904,Tetragonal,141,I4_1/amd,5.6503,True,False
mp-672388,ThPb,"Pb, Th",2,0.09105208295454759,Tetragonal,141,I4_1/amd,0.0,False,True
mp-23161,NpCl4,"Cl, Np",2,0.0,Tetragonal,141,I4_1/amd,0.0,False,True
mp-685120,Al2Se3,"Al, Se",2,0.02796865075000099,Tetragonal,141,I4_1/amd,1.0615999999999999,True,False
mp-1898,CeSi2,"Ce, Si",2,0.0,Tetragonal,141,I4_1/amd,0.0,False,True
mp-1077147,HoSi2,"Ho, Si",2,0.07827525833333482,Tetragonal,141,I4_1/amd,0.0,False,True
mp-1191536,EuZn11,"Eu, Zn",2,0.0,Tetragonal,141,I4_1/amd,0.0,False,True
mp-640370,CeZn11,"Ce, Zn",2,0.0,Tetragonal,141,I4_1/amd,0.0,False,True
mp-11722,PrGe2,"Ge, Pr",2,0.043675864444441714,Tetragonal,141,I4_1/amd,0.0,False,True
mp-600078,SiO2,"O, Si",2,0.023606455370369872,Tetragonal,141,I4_1/amd,5.6143,True,False
mp-1102064,MgAl2,"Al, Mg",2,0.04160550583333311,Tetragonal,141,I4_1/amd,0.0,False,True
mp-2398,ScSn2,"Sc, Sn",2,0.0,Tetragonal,141,I4_1/amd,0.0,False,True
mp-23160,ThBr4,"Br, Th",2,0.009874311000004354,Tetragonal,141,I4_1/amd,2.9258,False,False
mp-697085,H2O,"H, O",2,0.02045928500000027,Tetragonal,141,I4_1/amd,5.2923,False,False
mp-1102891,EuBi2,"Bi, Eu",2,0.01186953583333672,Tetragonal,141,I4_1/amd,0.0,False,True
mp-13444,LiSn,"Li, Sn",2,0.00018131666666709734,Tetragonal,141,I4_1/amd,0.0,False,True
mp-567705,TiAl2,"Al, Ti",2,0.0,Tetragonal,141,I4_1/amd,0.0,False,True
mp-1278937,CoO2,"Co, O",2,0.05732840500000069,Tetragonal,141,I4_1/amd,0.9448,True,False
mp-18567,CaZn11,"Ca, Zn",2,0.0,Tetragonal,141,I4_1/amd,0.0,False,True
mp-12769,YSi2,"Si, Y",2,0.038530698333332225,Tetragonal,141,I4_1/amd,0.0,False,True
mp-568148,PrZn11,"Pr, Zn",2,0.0,Tetragonal,141,I4_1/amd,0.0,False,True
mp-27191,Zr9S2,"S, Zr",2,0.0,Tetragonal,141,I4_1/amd,0.0,False,True
mp-755071,SnO2,"O, Sn",2,0.08744720333333333,Tetragonal,141,I4_1/amd,1.3075999999999999,True,False
mp-294,UO3,"O, U",2,0.08219406593750023,Tetragonal,141,I4_1/amd,1.8855,False,False
mp-684638,Al2S3,"Al, S",2,0.002949731999999372,Tetragonal,141,I4_1/amd,1.8371000000000004,False,False
mp-639705,SiO2,"O, Si",2,0.03688574922222365,Tetragonal,141,I4_1/amd,5.4988,True,False
mp-1077398,TbSi2,"Si, Tb",2,0.02558120916666695,Tetragonal,141,I4_1/amd,0.0,False,True
mp-571342,TiGa2,"Ga, Ti",2,0.0,Tetragonal,141,I4_1/amd,0.0,False,True
mp-8490,LiGe,"Ge, Li",2,0.033398377708334426,Tetragonal,141,I4_1/amd,0.0,False,True
mp-1016,PuGe2,"Ge, Pu",2,0.030350407083339803,Tetragonal,141,I4_1/amd,0.0,False,True
mp-27291,PaCl4,"Cl, Pa",2,0.0,Tetragonal,141,I4_1/amd,0.15539999999999932,False,False
mp-1890,BMo,"B, Mo",2,0.0,Tetragonal,141,I4_1/amd,0.0,False,True
mp-1201457,Sm3Zn22,"Sm, Zn",2,0.0,Tetragonal,141,I4_1/amd,0.0,False,True
mp-1271940,Co3O4,"Co, O",2,0.08989810071428561,Tetragonal,141,I4_1/amd,0.0,True,True
mp-1080664,CrB,"B, Cr",2,0.0,Tetragonal,141,I4_1/amd,0.0,False,True
mp-1077267,ErSi2,"Er, Si",2,0.07016696666666533,Tetragonal,141,I4_1/amd,0.0,False,True
mp-1478,Cu4O3,"Cu, O",2,0.00947217500000086,Tetragonal,141,I4_1/amd,0.0,False,True
mp-2129,NdGe2,"Ge, Nd",2,0.06113888722222427,Tetragonal,141,I4_1/amd,0.0,False,True
mp-2844,ThSi2,"Si, Th",2,0.018352853333329477,Tetragonal,141,I4_1/amd,0.0,False,True
mp-1104116,La2H5,"H, La",2,0.0,Tetragonal,141,I4_1/amd,0.0,True,True
mp-18026,SrZn11,"Sr, Zn",2,0.011865761979167999,Tetragonal,141,I4_1/amd,0.0,False,True
mp-13955,SmSi2,"Si, Sm",2,0.0,Tetragonal,141,I4_1/amd,0.0,False,True
mp-21055,CeGe2,"Ce, Ge",2,0.03751607749999941,Tetragonal,141,I4_1/amd,0.0,False,True
mp-571558,HgBr2,"Br, Hg",2,0.0,Trigonal,143,P3,1.6827,False,False
mp-1187792,Tl2S,"S, Tl",2,0.0015306029629629236,Trigonal,143,P3,0.9579999999999997,True,False
mp-1189328,TiNi,"Ni, Ti",2,0.022365216111110975,Trigonal,143,P3,0.0,False,True
mp-776922,Rb2O,"O, Rb",2,0.0025751122222219536,Trigonal,143,P3,0.19210000000000005,True,False
mp-776952,Na2O,"Na, O",2,0.07951855111111072,Trigonal,143,P3,1.5089000000000001,True,False
mp-1228882,As7Rh12,"As, Rh",2,0.060303455350876334,Trigonal,143,P3,0.0,True,True
mp-849083,Cr2S3,"Cr, S",2,0.027705951999998035,Trigonal,143,P3,0.0,True,True
mp-998929,K2O,"K, O",2,0.05939445666666687,Trigonal,143,P3,1.8533999999999997,True,False
mp-773884,Bi19O30,"Bi, O",2,0.04985608586734891,Trigonal,143,P3,0.0,True,True
mp-571406,Ga2Pt,"Ga, Pt",2,0.009185573541667935,Tetragonal,142,I4_1/acd,0.0,False,True
mp-1573,Sn2Pd,"Pd, Sn",2,0.0070368554166684305,Tetragonal,142,I4_1/acd,0.0,False,True
mp-866501,CsGe,"Cs, Ge",2,0.019759711562499227,Tetragonal,142,I4_1/acd,1.2151999999999998,False,False
mp-1201758,KGe,"Ge, K",2,0.009401662343750061,Tetragonal,142,I4_1/acd,1.0525,False,False
mp-622213,GeS2,"Ge, S",2,0.01548411104166636,Tetragonal,142,I4_1/acd,2.1396,False,False
mp-697135,H2S,"H, S",2,0.04597777333333308,Tetragonal,142,I4_1/acd,3.5201,False,False
mp-21526,KPb,"K, Pb",2,0.0,Tetragonal,142,I4_1/acd,0.37349999999999994,False,False
mp-1188303,Sn4Rh,"Rh, Sn",2,0.0,Tetragonal,142,I4_1/acd,0.0,False,True
mp-570634,Cd3As2,"As, Cd",2,0.0,Tetragonal,142,I4_1/acd,0.0,False,True
mp-31277,Sn4Ir,"Ir, Sn",2,0.027021374500002082,Tetragonal,142,I4_1/acd,0.0,False,True
mp-1197181,Zn3As2,"As, Zn",2,0.06796033343749963,Tetragonal,142,I4_1/acd,0.0,False,True
mp-570974,BeCl2,"Be, Cl",2,0.0,Tetragonal,142,I4_1/acd,6.5139,False,False
mp-11055,CsSn,"Cs, Sn",2,0.0012611442187520083,Tetragonal,142,I4_1/acd,0.7471999999999999,False,False
mp-1201508,KSi,"K, Si",2,0.014796516250000558,Tetragonal,142,I4_1/acd,1.5811,False,False
mp-1199496,Cd3As2,"As, Cd",2,0.058049348625,Tetragonal,142,I4_1/acd,0.0,False,True
mp-27687,LiP7,"Li, P",2,0.0,Tetragonal,142,I4_1/acd,1.6526999999999998,False,False
mp-647579,ZnBr2,"Br, Zn",2,0.0,Tetragonal,142,I4_1/acd,3.1833,False,False
mp-985707,CoSn3,"Co, Sn",2,0.0,Tetragonal,142,I4_1/acd,0.0,False,True
mp-30792,NaPb,"Na, Pb",2,0.0,Tetragonal,142,I4_1/acd,0.0,False,True
mp-27161,ZnI2,"I, Zn",2,0.0,Tetragonal,142,I4_1/acd,2.9076000000000004,False,False
mp-669566,ZnAu3,"Au, Zn",2,0.0,Tetragonal,142,I4_1/acd,0.0,False,True
mp-1200287,RbSi,"Rb, Si",2,0.013411456406251077,Tetragonal,142,I4_1/acd,1.159,False,False
mp-11051,NaSn,"Na, Sn",2,0.0,Tetragonal,142,I4_1/acd,0.34289999999999976,False,False
mp-555165,SiO2,"O, Si",2,0.022974082013890396,Tetragonal,142,I4_1/acd,5.531499999999999,True,False
mp-568240,Zn3As2,"As, Zn",2,0.001428766312499885,Tetragonal,142,I4_1/acd,0.17989999999999995,True,False
mp-30140,BeI2,"Be, I",2,0.0,Tetragonal,142,I4_1/acd,3.5667000000000004,False,False
mp-583213,HgI2,"Hg, I",2,2.734999999631782e-05,Tetragonal,142,I4_1/acd,1.7375,False,False
mp-21525,RbPb,"Pb, Rb",2,0.0,Tetragonal,142,I4_1/acd,0.40500000000000025,False,False
mp-866482,CsSi,"Cs, Si",2,0.01320130421875021,Tetragonal,142,I4_1/acd,1.2115,False,False
mp-29629,Be3P2,"Be, P",2,0.08350879137500034,Tetragonal,142,I4_1/acd,0.14529999999999976,False,False
mp-11054,RbSn,"Rb, Sn",2,0.0,Tetragonal,142,I4_1/acd,0.7438000000000002,False,False
mp-1199056,RbGe,"Ge, Rb",2,0.013162948593751,Tetragonal,142,I4_1/acd,1.2867,False,False
mp-1195785,NaP7,"Na, P",2,0.0,Tetragonal,142,I4_1/acd,1.7429000000000001,False,False
mp-542374,KSn,"K, Sn",2,0.0,Tetragonal,142,I4_1/acd,0.7336999999999998,False,False
mp-571195,ZnTe,"Te, Zn",2,0.003689128333332903,Trigonal,144,P3_1,1.069,False,False
mp-1247924,Al2Te3,"Al, Te",2,0.07966354924999663,Trigonal,146,R3,0.6829999999999998,True,False
mp-31503,Mg9Sn5,"Mg, Sn",2,0.005285322321428865,Trigonal,146,R3,0.0,False,True
mp-1228988,AlAg3,"Ag, Al",2,0.0,Trigonal,146,R3,0.0,True,True
mp-680057,Sb3Pd8,"Pd, Sb",2,0.00032338500000150816,Trigonal,146,R3,0.0,False,True
mp-1247927,Al2Se3,"Al, Se",2,0.08022124600000069,Trigonal,146,R3,0.9578000000000002,True,False
mp-1198800,Bi3Pd8,"Bi, Pd",2,0.014650359090913057,Trigonal,146,R3,0.0,False,True
mp-759526,Bi2O3,"Bi, O",2,0.03353767753846437,Trigonal,146,R3,1.7345000000000006,True,False
mp-556516,Tl2S,"S, Tl",2,0.0,Trigonal,146,R3,0.7668000000000004,False,False
mp-32742,U16N25,"N, U",2,0.0030217433536563476,Trigonal,146,R3,0.0,True,True
mp-757565,Fe41O56,"Fe, O",2,0.08685070634020775,Trigonal,146,R3,0.29540000000000033,True,False
mp-680944,Nb2O5,"Nb, O",2,0.00037253933673575546,Triclinic,1,P1,1.6138,True,False
mp-556994,SiO2,"O, Si",2,0.08827776805555665,Triclinic,1,P1,5.3836,True,False
mp-1214795,BiI5,"Bi, I",2,0.0,Triclinic,1,P1,0.06819999999999982,True,False
mp-685107,Cu9Se5,"Cu, Se",2,0.09463688946428483,Triclinic,1,P1,0.0,True,True
mp-1225980,Cu19Sn16,"Cu, Sn",2,0.016392744000000903,Triclinic,1,P1,0.0,True,True
mp-1236127,LiO8,"Li, O",2,0.01570788888888952,Triclinic,1,P1,0.08889999999999999,True,False
mp-766354,Bi25O38,"Bi, O",2,0.04175051099206506,Triclinic,1,P1,0.3201999999999998,True,False
mp-673637,Ti9S10,"S, Ti",2,0.0395194741228071,Triclinic,1,P1,0.0,True,True
mp-684860,Sm39S56,"S, Sm",2,0.024364385184211912,Triclinic,1,P1,0.0,True,True
mp-684747,Bi2O3,"Bi, O",2,0.037404371812503,Triclinic,1,P1,1.6863000000000001,True,False
mp-684619,Pr27Se40,"Pr, Se",2,0.0,Triclinic,1,P1,0.0,True,True
mp-714851,BN,"B, N",2,0.0981821674999992,Triclinic,1,P1,2.8663,True,False
mp-680260,Ti45Se16,"Se, Ti",2,0.0,Triclinic,1,P1,0.0,True,True
mp-664980,K2P3,"K, P",2,0.008696587499999353,Triclinic,1,P1,1.0518,True,False
mp-684691,Tm23Se32,"Se, Tm",2,0.0045780804999964175,Triclinic,1,P1,0.0,True,True
mp-1195198,H3S,"H, S",2,0.010304153125000326,Triclinic,1,P1,4.3472,True,False
mp-32854,H11O8,"H, O",2,0.07471023536184163,Triclinic,1,P1,1.0035,True,False
mp-1395134,MoF4,"F, Mo",2,0.04774984849999875,Triclinic,1,P1,3.1313,True,False
mp-1224298,In3Pt4,"In, Pt",2,0.04129864970239083,Triclinic,1,P1,0.0,True,True
mp-696588,PH3,"H, P",2,0.02929875354166711,Triclinic,1,P1,0.0,True,True
mp-673649,Zr23S32,"S, Zr",2,0.024630879568181996,Triclinic,1,P1,0.0,True,True
mp-661384,P2O5,"O, P",2,0.036022187142856765,Triclinic,1,P1,4.9527,True,False
mp-1184796,H3F2,"F, H",2,0.0,Triclinic,1,P1,8.0745,True,False
mp-716723,V9O17,"O, V",2,0.05437594812500279,Triclinic,1,P1,0.5838999999999999,True,False
mp-1245025,B2O3,"B, O",2,0.06316981453333348,Triclinic,1,P1,4.1254,True,False
mp-32868,Ag2S,"Ag, S",2,0.05733321388888868,Triclinic,1,P1,0.6242999999999999,True,False
mp-1271978,Fe3O4,"Fe, O",2,0.029083167857145042,Triclinic,1,P1,1.2089999999999996,True,False
mp-1214306,Ca8In3,"Ca, In",2,0.00018487909090936228,Triclinic,1,P1,0.0,True,True
mp-684726,La39Se56,"La, Se",2,0.015181630197364626,Triclinic,1,P1,0.0,True,True
mp-767208,Sb17S27,"S, Sb",2,0.05151980196732886,Triclinic,1,P1,0.0,True,True
mp-32833,Ho6Se11,"Ho, Se",2,0.01928642290440763,Triclinic,1,P1,0.5463000000000005,True,False
mp-684898,Cu18S11,"Cu, S",2,0.07795717142720449,Triclinic,1,P1,0.0,True,True
mp-1182249,Fe3O4,"Fe, O",2,0.052394452321429696,Triclinic,1,P1,0.7398999999999996,True,False
mp-752826,Al2O3,"Al, O",2,0.0937564655999994,Triclinic,1,P1,4.0173000000000005,True,False
mp-1245120,V2O5,"O, V",2,0.06754916214285878,Triclinic,1,P1,1.8843,True,False
mp-706875,Fe21O23,"Fe, O",2,0.05311943954545484,Triclinic,1,P1,1.3487,True,False
mp-1185276,Fe3O4,"Fe, O",2,0.058806416071430334,Triclinic,1,P1,0.637,True,False
mp-684897,Ta2O5,"O, Ta",2,0.06554945928571598,Triclinic,1,P1,3.0761999999999996,True,False
mp-32873,Hf23Se25,"Hf, Se",2,0.0,Triclinic,1,P1,0.0,True,True
mp-715517,VO2,"O, V",2,0.09784675020831735,Triclinic,1,P1,1.0155000000000003,True,False
mp-685089,K57Se34,"K, Se",2,0.05785864065934021,Triclinic,1,P1,0.0,True,True
mp-685048,Ag2Te,"Ag, Te",2,0.06293014666666608,Triclinic,1,P1,0.0,True,True
mp-760747,Ti11O18,"O, Ti",2,0.022618670129309848,Triclinic,1,P1,0.0,True,True
mp-705563,Co29O40,"Co, O",2,0.09002178043478182,Triclinic,1,P1,0.0,True,True
mp-685099,IrSe3,"Ir, Se",2,0.0630290893284986,Triclinic,1,P1,0.0,True,True
mp-1101121,Ti20Se19,"Se, Ti",2,0.06776422208333255,Triclinic,1,P1,0.0,True,True
mp-714932,V5O9,"O, V",2,0.03944204973214305,Triclinic,1,P1,0.7785000000000006,True,False
mp-759920,Ti5O8,"O, Ti",2,0.01572079650640923,Triclinic,1,P1,0.0,True,True
mp-2214725,V5O12,"O, V",2,0.0953513394117671,Triclinic,1,P1,1.2909000000000002,True,False
mp-715598,V7O13,"O, V",2,0.048525244812500645,Triclinic,1,P1,0.5731000000000002,True,False
mp-758800,B84O11,"B, O",2,0.01966110052631631,Triclinic,1,P1,2.5780000000000003,True,False
mp-32983,Nb3S5,"Nb, S",2,0.0,Triclinic,1,P1,0.0,True,True
mp-530018,Ta27S50,"S, Ta",2,0.0,Triclinic,1,P1,0.0,True,True
mp-685043,BBr,"B, Br",2,0.012856942777776936,Triclinic,1,P1,1.2319,True,False
mp-1173504,NbS2,"Nb, S",2,0.038142871666664746,Triclinic,1,P1,0.0,True,True
mp-753921,Sb11S18,"S, Sb",2,0.0599534741056047,Triclinic,1,P1,0.0,True,True
mp-556985,SiO2,"O, Si",2,0.05308426722222315,Triclinic,1,P1,5.6098,True,False
mp-664137,GeS2,"Ge, S",2,0.01812194312500015,Triclinic,1,P1,2.149,True,False
mp-1217322,TeSe,"Se, Te",2,0.0,Triclinic,1,P1,0.7062000000000008,True,False
mp-1383199,TiF4,"F, Ti",2,0.07489259699999984,Triclinic,1,P1,4.3454,True,False
mp-723352,Li2S,"Li, S",2,0.08199014303030339,Triclinic,1,P1,1.9206999999999999,True,False
mp-684627,Ce13O24,"Ce, O",2,0.004598331621622265,Triclinic,1,P1,0.0,True,True
mp-1222233,Mn23As16,"As, Mn",2,0.07719181319186497,Triclinic,1,P1,0.0,True,True
mp-733790,SiO2,"O, Si",2,0.006573497500001579,Triclinic,1,P1,5.593,False,False
mp-1245162,V2O5,"O, V",2,0.08705916919047674,Triclinic,1,P1,1.5861,True,False
mp-1215724,ZnAg,"Ag, Zn",2,0.01083988704678518,Triclinic,1,P1,0.0,True,True
mp-705588,Fe8O9,"Fe, O",2,0.049604119411766234,Triclinic,1,P1,0.9057,True,False
mp-1228811,B11Rh18,"B, Rh",2,0.02687456396551724,Triclinic,1,P1,0.0,True,True
mp-1216020,Zn35Cu17,"Cu, Zn",2,0.0,Triclinic,1,P1,0.0,True,True
mp-684594,Ce16O27,"Ce, O",2,0.010640885494183294,Triclinic,1,P1,0.0002999999999993008,True,False
mp-850874,Cr19O48,"Cr, O",2,0.09818929304477564,Triclinic,1,P1,0.03779999999999999,True,False
mp-658803,Au2O3,"Au, O",2,0.026197807999995604,Triclinic,1,P1,0.7390000000000003,True,False
mp-770023,Ag2Hg3,"Ag, Hg",2,0.0823189385333265,Triclinic,1,P1,0.0,True,True
mp-1402840,WF4,"F, W",2,0.0,Triclinic,1,P1,1.165,True,False
mp-1245156,V2O5,"O, V",2,0.08997369814285783,Triclinic,1,P1,1.9386999999999999,True,False
mp-530074,B4C,"B, C",2,0.09733170523809598,Triclinic,1,P1,0.0,True,True
mp-1221884,Mo13O33,"Mo, O",2,0.053166881141304856,Triclinic,1,P1,0.0,True,True
mp-760075,Ti19O30,"O, Ti",2,0.014278821505099515,Triclinic,1,P1,0.0,True,True
mp-673255,Cu9Se8,"Cu, Se",2,0.011069422647057792,Triclinic,1,P1,0.0,True,True
mp-777129,TiO2,"O, Ti",2,0.047410921666667605,Triclinic,1,P1,3.3083,True,False
mp-1272087,V2O3,"O, V",2,0.08587433358333385,Triclinic,1,P1,1.5206999999999997,True,False
mp-705551,Fe15O16,"Fe, O",2,0.07691624241935457,Triclinic,1,P1,0.6044000000000005,True,False
mp-1216446,V9Te8,"Te, V",2,0.010250489764706217,Triclinic,1,P1,0.0,True,True
mp-557873,SiO2,"O, Si",2,0.05987552833333254,Triclinic,1,P1,5.6607,True,False
mp-33024,H2S,"H, S",2,0.00809119875000075,Triclinic,1,P1,4.0901,True,False
mp-1224870,Ga5Ag13,"Ag, Ga",2,0.014017902962965678,Triclinic,1,P1,0.0,True,True
mp-1220657,Nb3S5,"Nb, S",2,0.0004686021875013324,Triclinic,1,P1,0.06570000000000054,True,False
mp-676241,FeCl3,"Cl, Fe",2,0.024356177083334707,Triclinic,1,P1,0.6636,True,False
mp-1219328,SeS7,"S, Se",2,0.019726980364584534,Triclinic,1,P1,1.8983,True,False
mp-776583,V9O22,"O, V",2,0.09403469274193732,Triclinic,1,P1,0.9038999999999997,True,False
mp-780521,Cr19O48,"Cr, O",2,0.08536411349253736,Triclinic,1,P1,0.3451,True,False
mp-777580,V5O12,"O, V",2,0.07810525294117632,Triclinic,1,P1,1.1948,True,False
mp-1080350,CeSe2,"Ce, Se",2,0.07970399722221977,Triclinic,1,P1,0.46060000000000034,True,False
mp-684966,Tb8O13,"O, Tb",2,0.06579674053571338,Triclinic,1,P1,0.0,True,True
mp-722960,Cd7P10,"Cd, P",2,0.04348920852940985,Triclinic,1,P1,1.4513999999999996,True,False
mp-645449,Te3Au2,"Au, Te",2,0.03509331195832743,Triclinic,1,P1,0.0,False,True
mp-32633,Dy6Se11,"Dy, Se",2,0.0,Triclinic,1,P1,0.5317000000000007,True,False
mp-1247880,Al2O3,"Al, O",2,0.09973405500000077,Triclinic,1,P1,0.00509999999999966,True,False
mp-678007,Sr3As4,"As, Sr",2,0.006247547857142877,Triclinic,1,P1,0.6520000000000001,True,False
mp-1351349,BiO2,"Bi, O",2,0.08585495479166738,Triclinic,1,P1,0.030100000000000016,True,False
mp-863766,Fe32O35,"Fe, O",2,0.057615221417911755,Triclinic,1,P1,0.5078999999999998,True,False
mp-1445089,MoO3,"Mo, O",2,0.010039616562499631,Triclinic,1,P1,1.8186000000000002,True,False
mp-682953,Sr3P4,"P, Sr",2,0.00811516785714339,Triclinic,1,P1,0.9465999999999997,True,False
mp-1247873,As16S17,"As, S",2,0.018047928219697695,Triclinic,1,P1,1.9747,True,False
mp-684881,Mn27Sb26,"Mn, Sb",2,0.012697329850357875,Triclinic,1,P1,0.0,True,True
mp-1219820,Sr21Hg109,"Hg, Sr",2,0.0,Triclinic,1,P1,0.0,True,True
mp-557004,SiO2,"O, Si",2,0.020841848333333246,Triclinic,1,P1,5.5806000000000004,True,False
mp-1182789,FeCl3,"Cl, Fe",2,0.0007547514583343684,Trigonal,147,P-3,0.042100000000000026,True,False
mp-1216292,Y4Co3,"Co, Y",2,0.03309995845238145,Trigonal,147,P-3,0.0,True,True
mp-1219339,Si13Rh20,"Rh, Si",2,0.05579027204545639,Trigonal,147,P-3,0.0,True,True
mp-32644,Pr5Cl12,"Cl, Pr",2,0.08935021519607922,Trigonal,147,P-3,0.0,True,True
mp-1222465,Lu4Co3,"Co, Lu",2,0.0,Trigonal,147,P-3,0.0,True,True
mp-1217007,Tm4Co3,"Co, Tm",2,0.0,Trigonal,147,P-3,0.0,True,True
mp-567550,In3Au7,"Au, In",2,0.0023752138333250628,Trigonal,147,P-3,0.0,False,True
mp-1225806,Gd4Co3,"Co, Gd",2,0.0,Trigonal,147,P-3,0.0,True,True
mp-15843,Ge9Pd25,"Ge, Pd",2,0.011116382948914705,Trigonal,147,P-3,0.0,False,True
mp-1217743,Tb4Co3,"Co, Tb",2,0.014821237661061915,Trigonal,147,P-3,0.0,True,True
mp-2716,TiNi,"Ni, Ti",2,0.02476340944444555,Trigonal,147,P-3,0.0,False,True
mp-1224199,Ho4Co3,"Co, Ho",2,0.012720401050420271,Trigonal,147,P-3,0.0,True,True
mp-1209041,Si9Ni25,"Ni, Si",2,0.011552343970588907,Trigonal,147,P-3,0.0,True,True
mp-1225451,Dy4Co3,"Co, Dy",2,0.015904088095241242,Trigonal,147,P-3,0.0,True,True
mp-1225765,Er4Co3,"Co, Er",2,0.015227826638653852,Trigonal,147,P-3,0.0,True,True
mp-568230,TiCl3,"Cl, Ti",2,0.027522782500000176,Trigonal,149,P312,0.027800000000000047,True,False
mp-753629,Zr2O,"O, Zr",2,0.008046194888883917,Trigonal,149,P312,0.0,True,True
mp-557812,Ti3O,"O, Ti",2,0.004301608958334313,Trigonal,149,P312,0.0,False,True
mp-1220654,Nb5S8,"Nb, S",2,0.010622922692307135,Trigonal,149,P312,0.0,True,True
mp-583463,FeCl3,"Cl, Fe",2,0.0,Trigonal,149,P312,0.43079999999999996,True,False
mp-673635,Fe3N,"Fe, N",2,0.002994857187500699,Trigonal,149,P312,0.0,True,True
mp-7715,AgF2,"Ag, F",2,0.03446712749999925,Monoclinic,14,P2_1/c,0.0,False,True
mp-27642,PaBr5,"Br, Pa",2,0.0,Monoclinic,14,P2_1/c,1.6176,False,False
mp-1341935,SbF5,"F, Sb",2,0.0,Monoclinic,14,P2_1/c,3.6765,True,False
mp-1101190,VF4,"F, V",2,0.039659406000000175,Monoclinic,14,P2_1/c,2.7491,True,False
mp-570421,Sm2B5,"B, Sm",2,0.0,Monoclinic,14,P2_1/c,0.0,False,True
mp-1232155,EuS2,"Eu, S",2,0.04171123826388978,Monoclinic,14,P2_1/c,0.0,True,True
mp-18856,MoO3,"Mo, O",2,6.992062500010832e-05,Monoclinic,14,P2_1/c,1.3714,False,False
mp-540829,RuF5,"F, Ru",2,0.0,Monoclinic,14,P2_1/c,0.6511000000000002,False,False
mp-384,MgP4,"Mg, P",2,0.0,Monoclinic,14,P2_1/c,0.7289000000000003,False,False
mp-1443,Sn3F8,"F, Sn",2,0.0,Monoclinic,14,P2_1/c,3.1684,False,False
mp-1208546,Ta24Al19,"Al, Ta",2,0.0008361397116232183,Monoclinic,14,P2_1/c,0.0,True,True
mp-1339908,TaF5,"F, Ta",2,0.07543845291666607,Monoclinic,14,P2_1/c,5.1237,True,False
mp-14285,CoP2,"Co, P",2,0.0,Monoclinic,14,P2_1/c,0.4377999999999993,False,False
mp-540830,OsF5,"F, Os",2,0.0,Monoclinic,14,P2_1/c,0.0,False,True
mp-753265,VF5,"F, V",2,0.031561396666666575,Monoclinic,14,P2_1/c,3.0073,True,False
mp-706937,B9H11,"B, H",2,0.0026213694374996876,Monoclinic,14,P2_1/c,3.319,False,False
mp-1180742,KO2,"K, O",2,0.026877493333333113,Monoclinic,14,P2_1/c,0.0,False,True
mp-542810,AsS,"As, S",2,0.0,Monoclinic,14,P2_1/c,1.9674000000000003,False,False