material_id,formula,elements,num_elements,energy_above_hull,crystal_system,spacegroup_number,spacegroup_symbol,band_gap,theoretical,is_metal
mp-27708,BiI,"Bi, I",2,0.015012911850000421,Monoclinic,12,C2/m,0.927,False,False
mp-1185877,MgHg2,"Hg, Mg",2,0.03917791749999122,Monoclinic,12,C2/m,0.0,True,True
mp-1207735,Y8Te3,"Te, Y",2,0.009553068636365403,Monoclinic,12,C2/m,0.0,True,True
mp-27397,IrBr3,"Br, Ir",2,0.0,Monoclinic,12,C2/m,1.5604000000000002,False,False
mp-1217971,Ta2H,"H, Ta",2,0.06918516666667074,Monoclinic,12,C2/m,0.0,True,True
mp-583168,NaSn2,"Na, Sn",2,0.0,Monoclinic,12,C2/m,0.0,False,True
mp-1102847,Tm5S7,"S, Tm",2,0.0,Monoclinic,12,C2/m,0.0,False,True
mp-1186484,Pm2Mg,"Mg, Pm",2,0.02901937916666908,Monoclinic,12,C2/m,0.0,True,True
mp-1077116,NbP2,"Nb, P",2,0.0,Monoclinic,12,C2/m,0.0,False,True
mp-1095187,Nb2O3,"Nb, O",2,0.08106879983333393,Monoclinic,12,C2/m,0.0,True,True
mp-1207439,Zr5Zn39,"Zn, Zr",2,0.0,Monoclinic,12,C2/m,0.0,True,True
mp-569141,Lu11Te4,"Lu, Te",2,0.0,Monoclinic,12,C2/m,0.0,False,True
mp-568172,Ca3N2,"Ca, N",2,0.037956494749998626,Monoclinic,12,C2/m,1.3593000000000002,False,False
mp-1218017,Ta5S8,"S, Ta",2,0.0,Monoclinic,12,C2/m,0.0,True,True
mp-27630,CrCl3,"Cl, Cr",2,0.0005407862499993144,Monoclinic,12,C2/m,0.14679999999999982,False,False
mp-1104327,Cr5Se8,"Cr, Se",2,0.0,Monoclinic,12,C2/m,0.0,False,True
mp-1185878,MgHg2,"Hg, Mg",2,0.02189582916666344,Monoclinic,12,C2/m,0.0,True,True
mp-2623,V4As3,"As, V",2,0.0,Monoclinic,12,C2/m,0.0,False,True
mp-1039319,Mg2Cd,"Cd, Mg",2,0.05854321527777828,Monoclinic,12,C2/m,0.0,True,True
mp-27770,RhCl3,"Cl, Rh",2,0.0,Monoclinic,12,C2/m,1.5211999999999999,False,False
mp-1205852,Tb2Cl3,"Cl, Tb",2,0.0,Monoclinic,12,C2/m,0.8523000000000005,True,False
mp-15670,Y5S7,"S, Y",2,0.0,Monoclinic,12,C2/m,0.0,False,True
mp-1203015,TaBr5,"Br, Ta",2,0.00018329256944493721,Monoclinic,12,C2/m,2.0349,False,False
mp-1039008,Ce2Mg,"Ce, Mg",2,0.050065067222220705,Monoclinic,12,C2/m,0.0,True,True
mp-1078708,TcCl3,"Cl, Tc",2,0.07092519833333277,Monoclinic,12,C2/m,0.0,False,True
mp-30985,Tb6Br7,"Br, Tb",2,0.04332203461538242,Monoclinic,12,C2/m,0.0,False,True
mp-1039467,Ca2Mg,"Ca, Mg",2,0.01340867249999933,Monoclinic,12,C2/m,0.0,True,True
mp-28704,Cr4As3,"As, Cr",2,0.04361285357142819,Monoclinic,12,C2/m,0.0,True,True
mp-727323,PbS,"Pb, S",2,0.058041917499998874,Monoclinic,12,C2/m,1.6540000000000001,False,False
mp-1551,Te2Ir,"Ir, Te",2,0.0030421406944398655,Monoclinic,12,C2/m,0.0,False,True
mp-570920,Ga5Fe6,"Fe, Ga",2,0.031206838323865504,Monoclinic,12,C2/m,0.0,False,True
mp-1094489,Mg2Zn,"Mg, Zn",2,0.08970595653333358,Monoclinic,12,C2/m,0.0,True,True
mp-1094600,LiMg2,"Li, Mg",2,0.027992521666666548,Monoclinic,12,C2/m,0.0,True,True
mp-601823,TaTe2,"Ta, Te",2,0.0026480211111081786,Monoclinic,12,C2/m,0.0,False,True
mp-7281,Dy3Ni2,"Dy, Ni",2,0.0,Monoclinic,12,C2/m,0.0,False,True
mp-1065846,ZrBr,"Br, Zr",2,0.0007946975000017176,Monoclinic,12,C2/m,0.006599999999999717,False,False
mp-1221495,MoCl3,"Cl, Mo",2,0.05313733270833332,Monoclinic,12,C2/m,0.2942,True,False
mp-643542,CaGe2,"Ca, Ge",2,0.0978748566666674,Monoclinic,12,C2/m,0.0,True,True
mp-1147,Ti3O5,"O, Ti",2,0.008363147031250406,Monoclinic,12,C2/m,0.0,False,True
mp-1092293,Bi2Pt,"Bi, Pt",2,0.04964917999999763,Monoclinic,12,C2/m,0.0,True,True
mp-9907,SrAs3,"As, Sr",2,0.0,Monoclinic,12,C2/m,0.0,False,True
mp-1192044,ZrCl3,"Cl, Zr",2,0.023913653750000208,Monoclinic,12,C2/m,0.059599999999999986,False,False
mp-583234,Bi4I,"Bi, I",2,0.014064147319996056,Monoclinic,12,C2/m,0.0,False,True
mp-1101463,Ti11O14,"O, Ti",2,0.04798493040000018,Monoclinic,12,C2/m,0.0,True,True
mp-1215090,Al19Co6,"Al, Co",2,0.008887402599999206,Monoclinic,12,C2/m,0.0,True,True
mp-2500,AlCu,"Al, Cu",2,0.0,Monoclinic,12,C2/m,0.0,False,True
mp-1185779,Mg2Sc,"Mg, Sc",2,0.030227316666665782,Monoclinic,12,C2/m,0.0,True,True
mp-1025442,IrI3,"I, Ir",2,0.0,Monoclinic,12,C2/m,1.3846999999999996,True,False
mp-7048,Al2O3,"Al, O",2,0.017159517999999707,Monoclinic,12,C2/m,4.4553,False,False
mp-7598,NbAs2,"As, Nb",2,0.0,Monoclinic,12,C2/m,0.0,False,True
mp-1072645,Si2Os,"Os, Si",2,0.07347810249999753,Monoclinic,12,C2/m,0.0,False,True
mp-1192251,Hf7As4,"As, Hf",2,0.0007765067803049419,Monoclinic,12,C2/m,0.0,False,True
mp-758601,MnF3,"F, Mn",2,0.09177825624999869,Monoclinic,12,C2/m,1.0702999999999998,True,False
mp-1228956,AlAu4,"Al, Au",2,0.07175598050000076,Monoclinic,12,C2/m,0.0,True,True
mp-1038955,CeMg2,"Ce, Mg",2,0.03014353944444359,Monoclinic,12,C2/m,0.0,True,True
mp-1271165,CoF3,"Co, F",2,0.014427379999999879,Monoclinic,12,C2/m,0.22530000000000028,True,False
mp-1179520,Sc5Ga3,"Ga, Sc",2,0.007125837812498759,Monoclinic,12,C2/m,0.0,False,True
mp-1079480,Tb3Ni2,"Ni, Tb",2,0.011405888749999704,Monoclinic,12,C2/m,0.0,False,True
mp-1184866,HoMg5,"Ho, Mg",2,0.050190813333333306,Monoclinic,12,C2/m,0.0,True,True
mp-7808,BaP3,"Ba, P",2,0.0,Monoclinic,12,C2/m,0.5735000000000001,False,False
mp-556584,Pm2O3,"O, Pm",2,0.011547908999997247,Monoclinic,12,C2/m,3.7016,True,False
mp-1210582,MnZn13,"Mn, Zn",2,0.08526993857142884,Monoclinic,12,C2/m,0.0,True,True
mp-556995,Nd2O3,"Nd, O",2,0.008266479833334728,Monoclinic,12,C2/m,3.6365,True,False
mp-976843,Li2Mg,"Li, Mg",2,0.0030548261111111863,Monoclinic,12,C2/m,0.0,True,True
mp-567525,Te2Au,"Au, Te",2,0.027432493333336083,Monoclinic,12,C2/m,0.0,False,True
mp-18254,Nb7P4,"Nb, P",2,0.0,Monoclinic,12,C2/m,0.0,False,True
mp-1095641,Tb5S7,"S, Tb",2,0.0,Monoclinic,12,C2/m,0.0,False,True
mp-1096898,Cr3N2,"Cr, N",2,0.0646813606666683,Monoclinic,12,C2/m,0.0,True,True
mp-1025159,Te4Rh3,"Rh, Te",2,0.0,Monoclinic,12,C2/m,0.0,False,True
mp-758933,B8O,"B, O",2,0.0259760522222221,Monoclinic,12,C2/m,2.3536,True,False
mp-690772,V5S8,"S, V",2,0.037621081538457446,Monoclinic,12,C2/m,0.0,False,True
mp-570538,NaN3,"N, Na",2,0.00013671249999980262,Monoclinic,12,C2/m,3.9442000000000004,False,False
mp-615993,SiO2,"O, Si",2,0.017484032222222723,Monoclinic,12,C2/m,5.4699,False,False
mp-568018,RbSb2,"Rb, Sb",2,0.0,Monoclinic,12,C2/m,0.26759999999999984,False,False
mp-1225993,Cu2S,"Cu, S",2,0.061917154375001004,Monoclinic,12,C2/m,1.2158000000000002,True,False
mp-1185920,MgIn2,"In, Mg",2,0.025467816296296686,Monoclinic,12,C2/m,0.0,True,True
mp-9254,Al2Te5,"Al, Te",2,0.0,Monoclinic,12,C2/m,1.0734000000000004,False,False
mp-545796,Cr3O8,"Cr, O",2,0.04964527436363664,Monoclinic,12,C2/m,0.5108999999999999,True,False
mp-571247,Al3Mo,"Al, Mo",2,0.0,Monoclinic,12,C2/m,0.0,True,True
mp-28034,Cu2P7,"Cu, P",2,0.0,Monoclinic,12,C2/m,0.8419999999999996,False,False
mp-2360071,CuBr2,"Br, Cu",2,0.0,Monoclinic,12,C2/m,0.0,False,True
mp-1220085,Ni3Te4,"Ni, Te",2,0.015030465714286123,Monoclinic,12,C2/m,0.0,True,True
mp-567919,Al45V7,"Al, V",2,0.015895317307692558,Monoclinic,12,C2/m,0.0,False,True
mp-1097933,Sr2Mg,"Mg, Sr",2,0.03027222500000115,Monoclinic,12,C2/m,0.0,True,True
mp-27793,Nb2Se,"Nb, Se",2,0.0,Monoclinic,12,C2/m,0.0,False,True
mp-1077263,TiS2,"S, Ti",2,0.004457463333333855,Monoclinic,12,C2/m,0.0,False,True
mp-1208221,Ti5Te8,"Te, Ti",2,0.0,Monoclinic,12,C2/m,0.0,True,True
mp-643084,Gd2O3,"Gd, O",2,0.021289789833332406,Monoclinic,12,C2/m,2.9056999999999995,False,False
mp-1207504,Zn22Ni3,"Ni, Zn",2,0.0,Monoclinic,12,C2/m,0.0,True,True
mp-1094177,La2Mg,"La, Mg",2,0.03379088500000105,Monoclinic,12,C2/m,0.0,True,True
mp-1178763,VS2,"S, V",2,0.03401762833333244,Monoclinic,12,C2/m,0.0,False,True
mp-540538,Ga4Fe3,"Fe, Ga",2,0.022887623080357855,Monoclinic,12,C2/m,0.0,False,True
mp-18654,Cr3Ga4,"Cr, Ga",2,0.08692408904762061,Monoclinic,12,C2/m,0.0,False,True
mp-1185777,Mg2Sc,"Mg, Sc",2,0.019216841666666706,Monoclinic,12,C2/m,0.0,True,True
mp-2659,LiN3,"Li, N",2,0.0,Monoclinic,12,C2/m,3.6364,False,False
mp-31007,Tb5Br8,"Br, Tb",2,0.02013215384615563,Monoclinic,12,C2/m,0.0,False,True
mp-17880,Al13Ru4,"Al, Ru",2,0.0,Monoclinic,12,C2/m,0.0,False,True
mp-1205955,K5Bi4,"Bi, K",2,0.0023976746990750364,Monoclinic,12,C2/m,0.0,True,True
mp-1025067,ReGe2,"Ge, Re",2,0.014889390833335625,Monoclinic,12,C2/m,0.0,False,True
mp-571377,TiCl3,"Cl, Ti",2,0.025326570416666527,Monoclinic,12,C2/m,0.0,False,True
mp-1094812,MgCd2,"Cd, Mg",2,0.05883775222222298,Monoclinic,12,C2/m,0.0,True,True
mp-917,CaC2,"C, Ca",2,0.014441561666666658,Monoclinic,12,C2/m,2.3396,False,False
mp-726184,PbS,"Pb, S",2,0.05897291999999865,Monoclinic,12,C2/m,1.7193999999999998,False,False
mp-2409,Ni5Sb2,"Ni, Sb",2,0.02425311214285486,Monoclinic,12,C2/m,0.0,True,True
mp-1078181,SiBr3,"Br, Si",2,0.0,Monoclinic,12,C2/m,3.8434,False,False
mp-1104276,ErNi4,"Er, Ni",2,0.006549951333332693,Monoclinic,12,C2/m,0.0,False,True
mp-1095275,GeP,"Ge, P",2,0.0,Monoclinic,12,C2/m,0.4889000000000001,False,False
mp-777698,V2O3,"O, V",2,0.08340323824999984,Monoclinic,12,C2/m,0.0,True,True
mp-1038936,MgBi,"Bi, Mg",2,0.07322987249999757,Monoclinic,12,C2/m,0.0,True,True
mp-662804,Sm10Pd21,"Pd, Sm",2,0.0,Monoclinic,12,C2/m,0.0,False,True
mp-1208223,Ti5S8,"S, Ti",2,0.0,Monoclinic,12,C2/m,0.0,True,True
mp-1080523,Ho3Ni2,"Ho, Ni",2,0.005092273500003408,Monoclinic,12,C2/m,0.0,False,True
mp-2461,CaGa4,"Ca, Ga",2,0.0016006820000011857,Monoclinic,12,C2/m,0.0,False,True
mp-1094190,La2Mg,"La, Mg",2,0.060518165000000845,Monoclinic,12,C2/m,0.0,True,True
mp-554278,TiO2,"O, Ti",2,0.006417397499999922,Monoclinic,12,C2/m,2.6774000000000004,False,False
mp-1094822,MgBi2,"Bi, Mg",2,0.09394252999999875,Monoclinic,12,C2/m,0.0,True,True
mp-27455,YCl3,"Cl, Y",2,0.0,Monoclinic,12,C2/m,4.9300999999999995,False,False
mp-1094274,SrMg,"Mg, Sr",2,0.04607699750000016,Monoclinic,12,C2/m,0.0,True,True
mp-1969,NbSb2,"Nb, Sb",2,0.0,Monoclinic,12,C2/m,0.004700000000000593,False,False
mp-12561,TaAs2,"As, Ta",2,0.0,Monoclinic,12,C2/m,0.013399999999999856,False,False
mp-1185756,Mg2Ag,"Ag, Mg",2,0.026462928333333746,Monoclinic,12,C2/m,0.0,True,True
mp-1185905,MgIn2,"In, Mg",2,0.018752441296295608,Monoclinic,12,C2/m,0.0,True,True
mp-1072660,VAs2,"As, V",2,0.0,Monoclinic,12,C2/m,0.0,False,True
mp-1203,TiO,"O, Ti",2,0.05257314800000046,Monoclinic,12,C2/m,0.0,False,True
mp-971673,BiS2,"Bi, S",2,0.0,Monoclinic,12,C2/m,1.0665999999999993,False,False
mp-567929,Al13Os4,"Al, Os",2,0.0,Monoclinic,12,C2/m,0.0,False,True
mp-27182,GdBr3,"Br, Gd",2,0.0,Monoclinic,12,C2/m,2.2701000000000002,False,False
mp-1094458,Mg2Zn,"Mg, Zn",2,0.08018877820000037,Monoclinic,12,C2/m,0.0,True,True
mp-647924,Eu2O3,"Eu, O",2,0.011704752000001761,Monoclinic,12,C2/m,0.0,False,True
mp-2717,Zr2Ni7,"Ni, Zr",2,0.0,Monoclinic,12,C2/m,0.0,False,True
mp-2647063,RuCl3,"Cl, Ru",2,0.02946166125000005,Monoclinic,12,C2/m,0.0,True,True
mp-1245211,Al2O3,"Al, O",2,0.04906034024999961,Monoclinic,12,C2/m,3.7795999999999994,True,False
mp-1207993,Tm5Ga3,"Ga, Tm",2,0.011204546406247573,Monoclinic,12,C2/m,0.0,True,True
mp-1722,Zn13Fe,"Fe, Zn",2,0.0,Monoclinic,12,C2/m,0.0,False,True
mp-558573,Y2O3,"O, Y",2,0.034227796250002385,Monoclinic,12,C2/m,3.9557,False,False
mp-1078796,EuAs3,"As, Eu",2,0.0,Monoclinic,12,C2/m,0.0,False,True
mp-1203489,Al13Rh4,"Al, Rh",2,0.0223804461397048,Monoclinic,12,C2/m,0.0,False,True
mp-541594,Sc8Te3,"Sc, Te",2,0.01247320884848424,Monoclinic,12,C2/m,0.0,False,True
mp-1094621,MgGa,"Ga, Mg",2,0.04664841499999994,Monoclinic,12,C2/m,0.0,True,True
mp-1213313,Eu5Ga3,"Eu, Ga",2,0.04998966812500072,Monoclinic,12,C2/m,0.0,True,True
mp-1094419,Y2Mg,"Mg, Y",2,0.06847998833333513,Monoclinic,12,C2/m,0.0,True,True
mp-504759,MoF5,"F, Mo",2,0.0,Monoclinic,12,C2/m,0.9911000000000001,False,False
mp-1095302,BiSe2,"Bi, Se",2,0.0,Monoclinic,12,C2/m,0.6721000000000004,False,False
mp-27871,RhBr3,"Br, Rh",2,0.0,Monoclinic,12,C2/m,1.2584,False,False
mp-11675,NbTe2,"Nb, Te",2,0.0,Monoclinic,12,C2/m,0.0,False,True
mp-1274279,FeO,"Fe, O",2,0.0,Monoclinic,12,C2/m,1.8157000000000005,True,False
mp-1193055,Ca13Al14,"Al, Ca",2,0.0,Monoclinic,12,C2/m,0.0,False,True
mp-964,Cr3S4,"Cr, S",2,0.0005037876190456814,Monoclinic,12,C2/m,0.0,False,True
mp-542449,Sc5Cl8,"Cl, Sc",2,0.0,Monoclinic,12,C2/m,0.0,False,True
mp-1078239,WBr4,"Br, W",2,0.016863431722221378,Monoclinic,12,C2/m,0.19629999999999992,False,False
mp-558564,SiO2,"O, Si",2,0.06549976777777822,Monoclinic,12,C2/m,5.6030999999999995,True,False
mp-510285,Ti11Se4,"Se, Ti",2,0.006961788239316924,Monoclinic,12,C2/m,0.0,False,True
mp-1062648,TbHg2,"Hg, Tb",2,0.06922792250000498,Monoclinic,12,C2/m,0.0,True,True
mp-27153,UBr4,"Br, U",2,0.0,Monoclinic,12,C2/m,0.0,False,True
mp-1191079,Ti7P4,"P, Ti",2,0.0,Monoclinic,12,C2/m,0.0,False,True
mp-1210677,Mg2Ir3,"Ir, Mg",2,0.0,Monoclinic,12,C2/m,0.0,True,True
mp-1094674,Mg2Ga,"Ga, Mg",2,0.068699659444444,Monoclinic,12,C2/m,0.0,True,True
mp-696673,Cr7Se8,"Cr, Se",2,0.0647171635555539,Monoclinic,12,C2/m,0.0,False,True
mp-1094454,YMg2,"Mg, Y",2,0.05063850166666617,Monoclinic,12,C2/m,0.0,True,True
mp-695850,CdCl2,"Cd, Cl",2,0.0025007366666667252,Monoclinic,12,C2/m,3.5155000000000003,True,False
mp-1337,MoAs2,"As, Mo",2,0.0,Monoclinic,12,C2/m,0.0,True,True
mp-27160,WCl5,"Cl, W",2,0.0,Monoclinic,12,C2/m,0.0,False,True
mp-1103057,GePd5,"Ge, Pd",2,0.0,Monoclinic,12,C2/m,0.0,True,True
mp-1094619,Mg2Ga,"Ga, Mg",2,0.07289674944444391,Monoclinic,12,C2/m,0.0,True,True
mp-9923,VP2,"P, V",2,0.0,Monoclinic,12,C2/m,0.0,False,True
mp-981252,YMg5,"Mg, Y",2,0.05254256333333274,Monoclinic,12,C2/m,0.0,True,True
mp-1104418,H6W,"H, W",2,0.06857490857142956,Monoclinic,12,C2/m,0.0,True,True
mp-29055,KSb2,"K, Sb",2,0.0,Monoclinic,12,C2/m,0.21530000000000005,False,False
mp-1207855,V5Te8,"Te, V",2,0.0,Monoclinic,12,C2/m,0.0,True,True
mp-29973,SrN,"N, Sr",2,0.0,Monoclinic,12,C2/m,0.0,False,True
mp-773019,V12O29,"O, V",2,0.03949390719512458,Monoclinic,12,C2/m,0.5361,True,False
mp-569867,SrP3,"P, Sr",2,0.0,Monoclinic,12,C2/m,0.3683000000000005,False,False
mp-637631,Tm15S22,"S, Tm",2,0.06360304199324318,Monoclinic,12,C2/m,0.0,False,True
mp-29841,Rh3S4,"Rh, S",2,0.0,Monoclinic,12,C2/m,0.0,False,True
mp-1206058,TlCl3,"Cl, Tl",2,0.0,Monoclinic,12,C2/m,2.1997999999999998,True,False
mp-18896,V6O13,"O, V",2,0.04474424447368541,Monoclinic,12,C2/m,0.5218,False,False
mp-646039,In7Cu10,"Cu, In",2,0.0,Monoclinic,12,C2/m,0.0,False,True
mp-18622,Hf7P4,"Hf, P",2,0.010405044015151077,Monoclinic,12,C2/m,0.0,False,True
mp-28910,CrS2,"Cr, S",2,0.04002080166666655,Monoclinic,12,C2/m,0.0,False,True
mp-1178810,VIr,"Ir, V",2,0.015865685625001902,Monoclinic,12,C2/m,0.0,True,True
mp-618813,Gd2Br3,"Br, Gd",2,0.0,Monoclinic,12,C2/m,0.22949999999999982,False,False
mp-541404,VO2,"O, V",2,0.0,Monoclinic,12,C2/m,0.21220000000000017,False,False
mp-1101301,TeO3,"O, Te",2,0.0,Monoclinic,12,C2/m,2.1595,True,False
mp-11696,As3W2,"As, W",2,0.0,Monoclinic,12,C2/m,0.0,False,True
mp-583740,Zr7P4,"P, Zr",2,0.0,Monoclinic,12,C2/m,0.0,False,True
mp-1103125,Dy5S7,"Dy, S",2,0.0,Monoclinic,12,C2/m,0.0,False,True
mp-569766,TeI,"I, Te",2,0.0,Monoclinic,12,C2/m,0.7871000000000001,False,False
mp-570629,Ce4Ru3,"Ce, Ru",2,0.0,Monoclinic,12,C2/m,0.0,False,True
mp-25207,V2O5,"O, V",2,0.025131394285715203,Monoclinic,12,C2/m,1.2555,True,False
mp-1039350,CaMg,"Ca, Mg",2,0.025369613749999242,Monoclinic,12,C2/m,0.0,True,True
mp-1080834,Na5As4,"As, Na",2,0.0,Monoclinic,12,C2/m,0.0,True,True
mp-484,Te3As2,"As, Te",2,0.0,Monoclinic,12,C2/m,0.43260000000000076,False,False
mp-676024,Li27Sb10,"Li, Sb",2,0.021027031621622783,Monoclinic,12,C2/m,0.0,True,True
mp-1067235,BaSi,"Ba, Si",2,0.0007154024999991293,Monoclinic,12,C2/m,0.0,True,True
mp-9305,Mn4As3,"As, Mn",2,0.054723128152709855,Monoclinic,12,C2/m,0.0,False,True
mp-1094505,MgZn,"Mg, Zn",2,0.07122559230000025,Monoclinic,12,C2/m,0.0,True,True
mp-1039263,MgBi2,"Bi, Mg",2,0.08995357499999868,Monoclinic,12,C2/m,0.0,True,True
mp-23307,NbCl5,"Cl, Nb",2,0.0,Monoclinic,12,C2/m,2.2205,False,False
mp-2780,Fe3Se4,"Fe, Se",2,0.07947149071428594,Monoclinic,12,C2/m,0.0,False,True
mp-2457,Tb2O3,"O, Tb",2,0.024932322333331314,Monoclinic,12,C2/m,3.9406999999999996,False,False
mp-580931,MgZn5,"Mg, Zn",2,0.03014021803571265,Monoclinic,12,C2/m,0.0,False,True
mp-1094452,YMg,"Mg, Y",2,0.08598959000000139,Monoclinic,12,C2/m,0.0,True,True
mp-1095567,ErMn2,"Er, Mn",2,0.06737981777777335,Monoclinic,12,C2/m,0.0,False,True
mp-1185973,MgSn,"Mg, Sn",2,0.03165804625000046,Monoclinic,12,C2/m,0.0,True,True
mp-1094601,Li2Mg,"Li, Mg",2,0.011001634444444353,Monoclinic,12,C2/m,0.0,True,True
mp-1202900,Al13Fe4,"Al, Fe",2,0.0,Monoclinic,12,C2/m,0.0,False,True
mp-22853,MoCl3,"Cl, Mo",2,0.03438312583333314,Monoclinic,12,C2/m,0.15009999999999968,False,False
mp-510438,InPt,"In, Pt",2,0.020134795125002825,Monoclinic,12,C2/m,0.0,False,True
mp-1224313,In9Cu11,"Cu, In",2,0.024956901857144942,Monoclinic,12,C2/m,0.0,True,True
mp-31485,Ga5Pd13,"Ga, Pd",2,0.0,Monoclinic,12,C2/m,0.0,False,True
mp-1101099,Ti2S3,"S, Ti",2,0.0,Monoclinic,12,C2/m,0.0,True,True
mp-1094624,MgGa2,"Ga, Mg",2,0.06718602333333301,Monoclinic,12,C2/m,0.0,True,True
mp-1185919,MgPb,"Mg, Pb",2,0.024581480000000155,Monoclinic,12,C2/m,0.0,True,True
mp-1228799,AsP,"As, P",2,0.05907249583333396,Monoclinic,12,C2/m,0.4581999999999997,True,False
mp-2460,Er2O3,"Er, O",2,0.034199426166669156,Monoclinic,12,C2/m,4.1023,False,False
mp-636946,Fe6Ge5,"Fe, Ge",2,0.036683335000001094,Monoclinic,12,C2/m,0.0,False,True
mp-1224390,HfAu9,"Au, Hf",2,0.0,Monoclinic,12,C2/m,0.0,True,True
mp-27513,Sc7Cl10,"Cl, Sc",2,0.0,Monoclinic,12,C2/m,0.0,False,True
mp-1094640,MgGa2,"Ga, Mg",2,0.05882519833333255,Monoclinic,12,C2/m,0.0,True,True
mp-27666,IrCl3,"Cl, Ir",2,0.0008085243749995641,Monoclinic,12,C2/m,1.8970000000000002,False,False
mp-555574,Dy2O3,"Dy, O",2,0.027894095583334888,Monoclinic,12,C2/m,3.9974999999999996,True,False
mp-11108,SrP3,"P, Sr",2,0.004748466874998414,Monoclinic,12,C2/m,0.00010000000000065512,False,False
mp-570325,AuSe,"Au, Se",2,0.0038122337499970627,Monoclinic,12,C2/m,0.0,False,True
mp-1203719,Er3C4,"C, Er",2,0.0,Tetragonal,128,P4/mnc,0.0,False,True
mp-15957,Sc15C19,"C, Sc",2,0.0017390710924392039,Tetragonal,128,P4/mnc,0.0,True,True
mp-1202754,Ho3C4,"C, Ho",2,0.0,Tetragonal,128,P4/mnc,0.0,False,True
mp-1213387,Dy3C4,"C, Dy",2,0.0,Tetragonal,128,P4/mnc,0.0,True,True
mp-1104734,TeBr6,"Br, Te",2,0.005126998392858795,Tetragonal,128,P4/mnc,0.0,False,True
mp-1204458,Tm15C19,"C, Tm",2,0.009526079470586701,Tetragonal,128,P4/mnc,0.0,True,True
mp-1203650,Lu15C19,"C, Lu",2,0.009565023958824526,Tetragonal,128,P4/mnc,0.0,True,True
mp-28733,Sc3C4,"C, Sc",2,0.0,Tetragonal,128,P4/mnc,0.0,False,True
mp-1200613,Y3C4,"C, Y",2,0.0,Tetragonal,128,P4/mnc,0.0,False,True
mp-22827,Er15C19,"C, Er",2,0.004803069999999465,Tetragonal,128,P4/mnc,0.0,True,True
mp-1205180,Tm3C4,"C, Tm",2,0.0,Tetragonal,128,P4/mnc,0.0,False,True
mp-1203767,Lu3C4,"C, Lu",2,0.0,Tetragonal,128,P4/mnc,0.0,False,True
mp-600015,SiO2,"O, Si",2,0.01921331500000001,Tetragonal,129,P4/nmm,5.6292,True,False
mp-1232216,PmSe2,"Pm, Se",2,0.025037150833330912,Tetragonal,129,P4/nmm,0.0,True,True
mp-1019266,SmTe2,"Sm, Te",2,0.010562577500000003,Tetragonal,129,P4/nmm,0.0,False,True
mp-600072,SiO2,"O, Si",2,0.013961447708334518,Tetragonal,129,P4/nmm,5.6478,True,False
mp-1018706,GdS2,"Gd, S",2,0.08518904707291597,Tetragonal,129,P4/nmm,0.0,False,True
mp-1072729,TmTe2,"Te, Tm",2,0.0778745791666644,Tetragonal,129,P4/nmm,0.0,False,True
mp-1018732,HoTe2,"Ho, Te",2,0.08565080124999724,Tetragonal,129,P4/nmm,0.0,False,True
mp-1018728,HoSe2,"Ho, Se",2,0.053177388072914056,Tetragonal,129,P4/nmm,0.0,False,True
mp-1228815,AlRe,"Al, Re",2,0.0,Tetragonal,129,P4/nmm,0.0,True,True
mp-7192,Sc2Sb,"Sb, Sc",2,0.0,Tetragonal,129,P4/nmm,0.0,False,True
mp-1018829,NpTe2,"Np, Te",2,0.0,Tetragonal,129,P4/nmm,0.0,False,True
mp-1018817,NdSe2,"Nd, Se",2,0.029739037697915194,Tetragonal,129,P4/nmm,0.0,False,True
mp-622570,Ti2Cu3,"Cu, Ti",2,0.0024576344999989175,Tetragonal,129,P4/nmm,0.0,False,True
mp-998972,TiAu,"Au, Ti",2,0.0,Tetragonal,129,P4/nmm,0.0,False,True
mp-604910,MnSe,"Mn, Se",2,0.02366644249999794,Tetragonal,129,P4/nmm,0.0,True,True
mp-567809,AgI,"Ag, I",2,0.006419075000000163,Tetragonal,129,P4/nmm,1.5986,False,False
mp-1018679,DyTe2,"Dy, Te",2,0.06719028333333554,Tetragonal,129,P4/nmm,0.0,False,True
mp-7474,Cu2As,"As, Cu",2,0.016657334166668036,Tetragonal,129,P4/nmm,0.0,False,True