material_id,formula,elements,num_elements,energy_above_hull,crystal_system,spacegroup_number,spacegroup_symbol,band_gap,theoretical,is_metal
mp-1201158,ZnS,"S, Zn",2,0.012544932023809352,Trigonal,160,R3m,2.0046,False,False
mp-1547,NiS,"Ni, S",2,0.014181840833332515,Trigonal,160,R3m,0.0,False,True
mp-581476,ZnS,"S, Zn",2,0.011333698690474847,Trigonal,160,R3m,2.0314,True,False
mp-22691,InSe,"In, Se",2,0.00042450000000116006,Trigonal,160,R3m,0.6665000000000001,False,False
mp-555858,ZnS,"S, Zn",2,0.05123025035714157,Trigonal,160,R3m,2.0194,True,False
mp-557151,ZnS,"S, Zn",2,0.011590293482143466,Trigonal,160,R3m,2.0574,True,False
mp-32750,CuI,"Cu, I",2,0.0074698162500013154,Trigonal,160,R3m,1.1643,True,False
mp-13456,ZnS,"S, Zn",2,0.0008045117142856384,Trigonal,160,R3m,2.0416,True,False
mp-1217681,Tb2Pr,"Pr, Tb",2,0.02758321944444475,Trigonal,160,R3m,0.0,True,True
mp-570641,SiC,"C, Si",2,0.009374986618421843,Trigonal,160,R3m,1.6997999999999998,False,False
mp-556105,ZnS,"S, Zn",2,0.051467687857144284,Trigonal,160,R3m,2.0107999999999997,True,False
mp-35216,BiTe3,"Bi, Te",2,0.03776439125000364,Trigonal,160,R3m,0.0,True,True
mp-1198139,ZnS,"S, Zn",2,0.012226781746031534,Trigonal,160,R3m,1.9919,False,False
mp-7834,TaSe2,"Se, Ta",2,0.0007636116666667192,Trigonal,160,R3m,0.0,False,True
mp-556576,ZnS,"S, Zn",2,0.013185257232143144,Trigonal,160,R3m,2.0892,True,False
mp-1200168,SiC,"C, Si",2,0.03181504235118027,Trigonal,160,R3m,1.9411999999999985,False,False
mp-1202023,ZnS,"S, Zn",2,0.012243527301587065,Trigonal,160,R3m,2.0011,False,False
mp-1227077,Cd43Pd8,"Cd, Pd",2,0.018259509558824716,Trigonal,160,R3m,0.0,True,True
mp-18377,ZnS,"S, Zn",2,0.05228532385714324,Trigonal,160,R3m,2.0462000000000002,True,False
mp-13870,TaSe2,"Se, Ta",2,0.012584051666664209,Trigonal,160,R3m,0.0,False,True
mp-7597,NbSe2,"Nb, Se",2,0.00010916500000135443,Trigonal,160,R3m,0.0,True,True
mp-1222780,LaY,"La, Y",2,0.007874764166665216,Trigonal,160,R3m,0.0,True,True
mp-15651,NiSe,"Ni, Se",2,0.0,Trigonal,160,R3m,0.0,False,True
mp-1200568,ZnS,"S, Zn",2,0.012634167579365752,Trigonal,160,R3m,1.9998999999999998,False,False
mp-1228640,B12S,"B, S",2,0.07553982990085562,Trigonal,160,R3m,1.7964000000000002,True,False
mp-938,GeTe,"Ge, Te",2,0.0,Trigonal,160,R3m,0.8086000000000002,False,False
mp-1219457,SbAs,"As, Sb",2,0.0,Trigonal,160,R3m,0.0,True,True
mp-1227357,Be3Cu,"Be, Cu",2,0.0004129520833338063,Trigonal,160,R3m,0.0,True,True
mp-1219373,Sc3Te4,"Sc, Te",2,0.03464432714285692,Trigonal,160,R3m,0.0,True,True
mp-33046,TiN,"N, Ti",2,0.07448175613636465,Trigonal,160,R3m,0.0,True,True
mp-685189,Cu29Se19,"Cu, Se",2,0.0950571174479169,Trigonal,160,R3m,0.0,True,True
mp-23162,ZrCl2,"Cl, Zr",2,0.0,Trigonal,160,R3m,0.8479999999999999,False,False
mp-555410,ZnS,"S, Zn",2,0.0011271082142858546,Trigonal,160,R3m,2.064,True,False
mp-627401,CdI2,"Cd, I",2,0.009183332444443693,Trigonal,160,R3m,2.3569,True,False
mp-1199063,SiC,"C, Si",2,0.03197052929699318,Trigonal,160,R3m,1.6849000000000007,False,False
mp-1194040,Mn5Al8,"Al, Mn",2,0.07759116884615391,Trigonal,160,R3m,0.0,False,True
mp-570690,SiC,"C, Si",2,0.00847352842397786,Trigonal,160,R3m,1.6644000000000005,False,False
mp-555763,ZnS,"S, Zn",2,0.0015756040476198052,Trigonal,160,R3m,2.0639,True,False
mp-624397,SiC,"C, Si",2,0.03186892241387618,Trigonal,160,R3m,1.9959999999999987,False,False
mp-556468,ZnS,"S, Zn",2,0.011590210982143745,Trigonal,160,R3m,2.0575,True,False
mp-1224391,Hf4N3,"Hf, N",2,0.04349364714285642,Trigonal,160,R3m,0.0,True,True
mp-1217883,Ta13Al23,"Al, Ta",2,0.05228515149629942,Trigonal,160,R3m,0.0,True,True
mp-966,NbS2,"Nb, S",2,0.0018087000000006626,Trigonal,160,R3m,0.0,False,True
mp-1225769,Cu5Ge2,"Cu, Ge",2,0.07387074547619044,Trigonal,160,R3m,0.0,True,True
mp-1222752,LaY,"La, Y",2,0.0597295308333301,Trigonal,160,R3m,0.0,True,True
mp-10014,TaS2,"S, Ta",2,0.0,Trigonal,160,R3m,0.0,False,True
mp-1216163,Y4Mg25,"Mg, Y",2,0.023279291551723702,Trigonal,160,R3m,0.0,True,True
mp-1227576,Cu81Sn22,"Cu, Sn",2,0.02619956883495078,Trigonal,160,R3m,0.0,True,True
mp-1200692,SiC,"C, Si",2,2.1850897833353145e-05,Trigonal,160,R3m,1.9692999999999987,False,False
mp-1220501,Nb4C3,"C, Nb",2,0.08841718142856969,Trigonal,160,R3m,0.0,True,True
mp-608468,ZnS,"S, Zn",2,0.051705680357141404,Trigonal,160,R3m,1.9701000000000002,True,False
mp-1202182,ZnS,"S, Zn",2,0.012223650912698503,Trigonal,160,R3m,1.9929999999999999,False,False
mp-1225654,CuCl,"Cl, Cu",2,0.004516119999999901,Trigonal,160,R3m,0.5569000000000002,True,False
mp-11342,GaSe,"Ga, Se",2,0.001448951250001329,Trigonal,160,R3m,1.2233,False,False
mp-1204356,SiC,"C, Si",2,0.0,Trigonal,160,R3m,1.8389000000000006,False,False
mp-16226,TaS2,"S, Ta",2,0.0024364383333335127,Trigonal,160,R3m,0.0,False,True
mp-581258,ZnS,"S, Zn",2,0.01187890785714174,Trigonal,160,R3m,2.0300000000000002,True,False
mp-13685,Cr2S3,"Cr, S",2,0.0005811189999986865,Trigonal,163,P-31c,0.0,False,True
mp-2591,Ti3O,"O, Ti",2,0.0,Trigonal,163,P-31c,0.0,False,True
mp-1189023,Cr2Se3,"Cr, Se",2,0.0012681460000010247,Trigonal,163,P-31c,0.0,False,True
mp-684640,MoCl3,"Cl, Mo",2,0.04072408864583288,Trigonal,163,P-31c,1.0363,True,False
mp-554098,Ti6O,"O, Ti",2,0.0,Trigonal,163,P-31c,0.0,False,True
mp-776655,Ti2O3,"O, Ti",2,0.08461525249999902,Trigonal,163,P-31c,0.0,True,True
mp-567330,TiCl3,"Cl, Ti",2,0.028030144375000177,Trigonal,163,P-31c,0.0,False,True
mp-1311,Cr5S6,"Cr, S",2,0.034498021363635445,Trigonal,163,P-31c,0.0,False,True
mp-1208273,Ti2Se3,"Se, Ti",2,0.012455832500001485,Trigonal,163,P-31c,0.0,True,True
mp-755175,Al2O3,"Al, O",2,0.08190022899999949,Trigonal,163,P-31c,5.4924,True,False
mp-2750,Cr2Te3,"Cr, Te",2,0.0,Trigonal,163,P-31c,0.0,False,True
mp-28478,NaTe3,"Na, Te",2,0.0,Trigonal,165,P-3c1,0.5092000000000003,False,False
mp-1191736,YF3,"F, Y",2,0.026961792291666953,Trigonal,165,P-3c1,7.4289,False,False
mp-2651,PrF3,"F, Pr",2,0.0,Trigonal,165,P-3c1,7.5968,False,False
mp-1191179,TmH3,"H, Tm",2,0.0,Trigonal,165,P-3c1,0.006099999999999994,False,False
mp-254,NdF3,"F, Nd",2,0.0,Trigonal,165,P-3c1,7.6164000000000005,False,False
mp-7634,Cu3As,"As, Cu",2,0.06805578708333293,Trigonal,165,P-3c1,0.0,False,True
mp-1191653,Li3As,"As, Li",2,0.04345508416666721,Trigonal,165,P-3c1,0.36939999999999995,False,False
mp-8066,Cu3As,"As, Cu",2,0.07952983499999888,Trigonal,165,P-3c1,0.0,False,True
mp-505686,GdH3,"Gd, H",2,0.0,Trigonal,165,P-3c1,0.0,False,True
mp-1191571,DyH3,"Dy, H",2,0.0,Trigonal,165,P-3c1,0.0047999999999999154,False,False
mp-905,LaF3,"F, La",2,0.0,Trigonal,165,P-3c1,6.0448,False,False
mp-359,Cu3P,"Cu, P",2,0.06851393406249962,Trigonal,165,P-3c1,0.0,False,True
mp-1190843,NpH3,"H, Np",2,0.024578550000001087,Trigonal,165,P-3c1,0.0,False,True
mp-14012,Cu3P,"Cu, P",2,0.026024493854166053,Trigonal,165,P-3c1,0.0,False,True
mp-982384,TbH3,"H, Tb",2,0.0,Trigonal,165,P-3c1,0.0,False,True
mp-1210818,LuF3,"F, Lu",2,0.0,Trigonal,165,P-3c1,7.689900000000001,True,False
mp-1191245,LuH3,"H, Lu",2,0.0,Trigonal,165,P-3c1,0.015600000000000058,False,False
mp-1192065,SmH3,"H, Sm",2,0.0,Trigonal,165,P-3c1,0.0037000000000002586,False,False
mp-510560,CeF3,"Ce, F",2,0.0,Trigonal,165,P-3c1,0.0,False,True
mp-23706,YH3,"H, Y",2,0.0002107895833347584,Trigonal,165,P-3c1,0.0042999999999997485,False,False
mp-632656,HoH3,"H, Ho",2,0.0,Trigonal,165,P-3c1,0.0,False,True
mp-976578,NdH3,"H, Nd",2,0.0,Trigonal,165,P-3c1,0.0,False,True
mp-1190750,ErH3,"Er, H",2,0.0,Trigonal,165,P-3c1,0.0,False,True
mp-1557,Mg3Au,"Au, Mg",2,0.00043810999999793765,Trigonal,165,P-3c1,0.0,False,True
mp-1212889,DyF3,"Dy, F",2,0.025540893749997906,Trigonal,165,P-3c1,7.8654,True,False
mp-2654,Al2S3,"Al, S",2,0.0007735216666677758,Hexagonal,169,P6_1,2.817,True,False
mp-612740,In2Se3,"In, Se",2,0.0,Hexagonal,169,P6_1,0.9901999999999997,True,False
mp-10733,Sm2O3,"O, Sm",2,0.01703721774999778,Trigonal,164,P-3m1,3.9371,False,False
mp-25223,MnO2,"Mn, O",2,0.06357083222222215,Trigonal,164,P-3m1,1.5210000000000001,False,False
mp-570122,Cr3Te4,"Cr, Te",2,0.06187111428571157,Trigonal,164,P-3m1,0.0,True,True
mp-1219462,SbTe2,"Sb, Te",2,0.0,Trigonal,164,P-3m1,0.0,True,True
mp-1103073,Sb2Br9,"Br, Sb",2,0.0,Trigonal,164,P-3m1,0.0,False,True
mp-1120788,CoCl2,"Cl, Co",2,0.011647123333332843,Trigonal,164,P-3m1,0.09100000000000019,True,False
mp-1023940,MoSe2,"Mo, Se",2,0.00793087166666595,Trigonal,164,P-3m1,1.1679,True,False
mp-1094853,LiMg,"Li, Mg",2,0.043383229999999884,Trigonal,164,P-3m1,0.0,True,True
mp-1067974,ZrCl,"Cl, Zr",2,0.07851782000000007,Trigonal,164,P-3m1,0.0,False,True
mp-28306,MnBr2,"Br, Mn",2,0.0,Trigonal,164,P-3m1,1.5962,False,False
mp-1206431,In2Au3,"Au, In",2,0.08824786000000273,Trigonal,164,P-3m1,0.0,True,True
mp-2755,SiTe2,"Si, Te",2,0.0482593716666635,Trigonal,164,P-3m1,0.0,False,True
mp-1017552,Bi2O3,"Bi, O",2,0.08499410649999994,Trigonal,164,P-3m1,1.1218000000000004,False,False
mp-1173628,Nb39C34,"C, Nb",2,0.088001698544522,Trigonal,164,P-3m1,0.0,True,True
mp-685209,Sc39N34,"N, Sc",2,0.0,Trigonal,164,P-3m1,0.0,True,True
mp-1094569,Li2Mg,"Li, Mg",2,0.02714026111111112,Trigonal,164,P-3m1,0.0,True,True
mp-1030319,Te2Mo,"Mo, Te",2,0.005903612499999156,Trigonal,164,P-3m1,0.5861999999999998,True,False
mp-31474,Rb2Hg7,"Hg, Rb",2,0.00452349037037425,Trigonal,164,P-3m1,0.0,False,True
mp-1023933,WSe2,"Se, W",2,0.008163203333332092,Trigonal,164,P-3m1,1.5241,True,False
mp-569018,Mg3Bi2,"Bi, Mg",2,0.0,Trigonal,164,P-3m1,0.0,False,True
mp-1101258,TiS2,"S, Ti",2,0.002321645555555918,Trigonal,164,P-3m1,0.0,True,True
mp-665,SnSe2,"Se, Sn",2,0.0,Trigonal,164,P-3m1,0.7018,False,False
mp-1206713,Al2Zn,"Al, Zn",2,0.02457867833333438,Trigonal,164,P-3m1,0.0,True,True
mp-1018138,VI2,"I, V",2,0.0,Trigonal,164,P-3m1,1.0370000000000004,False,False
mp-10905,Al3Pt2,"Al, Pt",2,0.0,Trigonal,164,P-3m1,0.0,False,True
mp-685055,CrTe2,"Cr, Te",2,0.0,Trigonal,164,P-3m1,0.0,True,True
mp-1272139,SnBr2,"Br, Sn",2,0.037404726666665056,Trigonal,164,P-3m1,1.967,True,False
mp-29671,TmI2,"I, Tm",2,0.04257693666666906,Trigonal,164,P-3m1,0.0,False,True
mp-1662,Te2Au,"Au, Te",2,0.018199156249998794,Trigonal,164,P-3m1,0.0,False,True
mp-1017579,In2Au3,"Au, In",2,0.0,Trigonal,164,P-3m1,0.0,False,True
mp-567402,CdI2,"Cd, I",2,0.00011265777777680341,Trigonal,164,P-3m1,2.3572,False,False
mp-8652,SF6,"F, S",2,0.0002681704761906545,Trigonal,164,P-3m1,5.8899,False,False
mp-1028698,WSe2,"Se, W",2,0.004252081666667351,Trigonal,164,P-3m1,1.1997000000000002,True,False
mp-27922,GeI2,"Ge, I",2,0.0,Trigonal,164,P-3m1,2.0217,False,False
mp-694,VSe2,"Se, V",2,0.0,Trigonal,164,P-3m1,0.0,False,True
mp-1207013,Si2Rh3,"Rh, Si",2,0.0,Trigonal,164,P-3m1,0.0,True,True
mp-6997,Sb2Te,"Sb, Te",2,0.016421579206351566,Trigonal,164,P-3m1,0.0,False,True
mp-13061,Y2O3,"O, Y",2,0.05723404625000228,Trigonal,164,P-3m1,4.083600000000001,True,False
mp-2646,Mg3Sb2,"Mg, Sb",2,0.006945308249998838,Trigonal,164,P-3m1,0.21720000000000006,False,False
mp-1221487,MoCl6,"Cl, Mo",2,0.000334448095236084,Trigonal,164,P-3m1,1.0905,True,False
mp-1079408,Li5In4,"In, Li",2,0.0,Trigonal,164,P-3m1,0.0,False,True
mp-1039083,CeMg,"Ce, Mg",2,0.0732723508333315,Trigonal,164,P-3m1,0.0,True,True
mp-1057,Al3Ni2,"Al, Ni",2,0.0,Trigonal,164,P-3m1,0.0,False,True
mp-2285,Te2Ir,"Ir, Te",2,0.03833887291666116,Trigonal,164,P-3m1,0.0,False,True
mp-567336,CdI2,"Cd, I",2,0.000360966111109029,Trigonal,164,P-3m1,2.2164,False,False
mp-1009581,CrSe2,"Cr, Se",2,0.0,Trigonal,164,P-3m1,0.0,False,True
mp-1028586,Te2W,"Te, W",2,0.03870818666666764,Trigonal,164,P-3m1,0.6218000000000004,True,False
mp-1017565,In2Se3,"In, Se",2,0.03838258833333441,Trigonal,164,P-3m1,0.10449999999999982,False,False
mp-1014160,ZrN,"N, Zr",2,0.04915273249999785,Trigonal,164,P-3m1,0.0,True,True
mp-28013,MnI2,"I, Mn",2,0.0,Trigonal,164,P-3m1,1.1707999999999998,False,False
mp-1186,ZrS2,"S, Zr",2,0.0,Trigonal,164,P-3m1,1.0418,False,False
mp-567510,BaSn2,"Ba, Sn",2,0.0,Trigonal,164,P-3m1,0.0,True,True
mp-13065,Ho2O3,"Ho, O",2,0.0537646782500012,Trigonal,164,P-3m1,4.2423,True,False
mp-1023925,WS2,"S, W",2,0.007448381666669945,Trigonal,164,P-3m1,1.697,True,False
mp-995122,NbS2,"Nb, S",2,0.043017830000001034,Trigonal,164,P-3m1,0.0,False,True
mp-2578,NiTe2,"Ni, Te",2,0.0,Trigonal,164,P-3m1,0.0,False,True
mp-1062935,LaHg2,"Hg, La",2,0.001377663333336443,Trigonal,164,P-3m1,0.0,False,True
mp-1224793,FePd2,"Fe, Pd",2,0.05072774555555526,Trigonal,164,P-3m1,0.0,True,True
mp-1207193,CuTe2,"Cu, Te",2,0.05918031500000254,Trigonal,164,P-3m1,0.0,True,True
mp-1207204,LuF3,"F, Lu",2,0.002669947083333568,Trigonal,164,P-3m1,7.4832,True,False
mp-1221162,Nb19Fe20,"Fe, Nb",2,0.0019161841222867793,Trigonal,164,P-3m1,0.0,True,True
mp-985829,HfS2,"Hf, S",2,0.0,Trigonal,164,P-3m1,1.2237,False,False
mp-569581,Bi2Pt,"Bi, Pt",2,0.05002900180554981,Trigonal,164,P-3m1,0.0,True,True
mp-30031,CaI2,"Ca, I",2,0.0,Trigonal,164,P-3m1,3.8971,False,False
mp-1218948,SnP,"P, Sn",2,0.024516257500000194,Trigonal,164,P-3m1,0.0,True,True
mp-22787,Fe2Si,"Fe, Si",2,0.004748117083335224,Trigonal,164,P-3m1,0.0,False,True
mp-1018150,NbTe2,"Nb, Te",2,0.028679898888891664,Trigonal,164,P-3m1,0.0,False,True
mp-1064427,GdBr,"Br, Gd",2,0.03520318166667025,Trigonal,164,P-3m1,0.0,False,True
mp-1069841,V2N3,"N, V",2,0.09601281100000136,Trigonal,164,P-3m1,0.0,True,True
mp-1226378,Cr2C,"C, Cr",2,0.06254013708333694,Trigonal,164,P-3m1,0.0,True,True
mp-1008626,VTe2,"Te, V",2,0.0,Trigonal,164,P-3m1,0.0,False,True
mp-2156,TiS2,"S, Ti",2,0.0,Trigonal,164,P-3m1,0.0,False,True
mp-21423,Pu2O3,"O, Pu",2,0.09100255000000601,Trigonal,164,P-3m1,0.0,False,True
mp-567483,CdI2,"Cd, I",2,8.534222222200682e-05,Trigonal,164,P-3m1,2.0305999999999997,False,False
mp-1690,TaS2,"S, Ta",2,0.016096433333331106,Trigonal,164,P-3m1,0.0,False,True
mp-2763,Nd2O3,"Nd, O",2,0.005659960500000949,Trigonal,164,P-3m1,3.8089000000000004,False,False
mp-9561,VS2,"S, V",2,0.014418861666664284,Trigonal,164,P-3m1,0.0,False,True
mp-27902,BiSe,"Bi, Se",2,0.0039308987499975245,Trigonal,164,P-3m1,0.0,False,True
mp-1204207,Nb10Ge7,"Ge, Nb",2,0.0062430702380957825,Trigonal,164,P-3m1,0.0,False,True
mp-617,PtO2,"O, Pt",2,0.05577673166666841,Trigonal,164,P-3m1,1.6099,False,False
mp-2063,Pr2O3,"O, Pr",2,0.001039500250001879,Trigonal,164,P-3m1,3.7451999999999996,False,False
mp-567534,CdI2,"Cd, I",2,0.0001425886111090513,Trigonal,164,P-3m1,2.3484999999999996,False,False
mp-1069815,In3Pt2,"In, Pt",2,0.00039437725000368573,Trigonal,164,P-3m1,0.0,False,True
mp-13146,Ca3N2,"Ca, N",2,0.09293087150000012,Trigonal,164,P-3m1,1.4173000000000004,False,False
mp-29950,Nb3Cl8,"Cl, Nb",2,0.0,Trigonal,164,P-3m1,0.14510000000000023,False,False
mp-1024087,Zr63S128,"S, Zr",2,0.029401309528794606,Trigonal,164,P-3m1,0.0,True,True
mp-1297,Tl9Pd13,"Pd, Tl",2,0.0,Trigonal,164,P-3m1,0.0,False,True
mp-1027525,MoS2,"Mo, S",2,0.003681534999998348,Trigonal,164,P-3m1,1.4639999999999997,True,False
mp-1220631,Nb3S4,"Nb, S",2,0.07749125357142894,Trigonal,164,P-3m1,0.0,True,True
mp-1094684,CeMg2,"Ce, Mg",2,0.06793893777777882,Trigonal,164,P-3m1,0.0,True,True
mp-1066783,ZrBr,"Br, Zr",2,0.09313309750000087,Trigonal,164,P-3m1,0.0,False,True
mp-23205,MgI2,"I, Mg",2,0.0,Trigonal,164,P-3m1,3.6162000000000005,False,False
mp-1062310,LuCd2,"Cd, Lu",2,0.002753220000002443,Trigonal,164,P-3m1,0.0,True,True
mp-1027692,MoSe2,"Mo, Se",2,0.003961538333335568,Trigonal,164,P-3m1,1.1384,True,False
mp-782,Te2Pd,"Pd, Te",2,0.0,Trigonal,164,P-3m1,0.0,False,True
mp-13067,Tm2O3,"O, Tm",2,0.06832114524999966,Trigonal,164,P-3m1,4.1535,True,False
mp-1017564,Eu2O3,"Eu, O",2,0.0,Trigonal,164,P-3m1,0.0,False,True
mp-680214,Bi8Se7,"Bi, Se",2,0.005568796666667097,Trigonal,164,P-3m1,0.0,False,True
mp-1025044,AlNi2,"Al, Ni",2,0.027575857500000467,Trigonal,164,P-3m1,0.0,True,True
mp-11107,Ac2O3,"Ac, O",2,0.0,Trigonal,164,P-3m1,3.5225999999999997,False,False
mp-1207227,Mg2Bi3,"Bi, Mg",2,0.06914737599999876,Trigonal,164,P-3m1,0.0,True,True
mp-32887,HfTe2,"Hf, Te",2,0.0,Trigonal,164,P-3m1,0.0,False,True
mp-1217189,Ti5Mn7,"Mn, Ti",2,0.019532749019608886,Trigonal,164,P-3m1,0.0,True,True
mp-1226439,Co2Pd,"Co, Pd",2,0.07620323000000084,Trigonal,164,P-3m1,0.0,True,True
mp-13064,Dy2O3,"Dy, O",2,0.04560650624999951,Trigonal,164,P-3m1,4.1997,True,False
mp-1952,Ba7Al13,"Al, Ba",2,0.024810519750002147,Trigonal,164,P-3m1,0.0,False,True
mp-569708,TiPt3,"Pt, Ti",2,0.0,Trigonal,164,P-3m1,0.0,True,True
mp-7891,Mg3As2,"As, Mg",2,0.031517473250000094,Trigonal,164,P-3m1,0.8711000000000002,True,False
mp-1225515,DyTh2,"Dy, Th",2,0.018256578333335938,Trigonal,164,P-3m1,0.0,True,True
mp-1170,SnS2,"S, Sn",2,0.0,Trigonal,164,P-3m1,1.5147999999999997,False,False
mp-1215431,ZnCo2,"Co, Zn",2,0.058917223030301,Trigonal,164,P-3m1,0.0,True,True
mp-1018107,ZrTe2,"Te, Zr",2,0.0,Trigonal,164,P-3m1,0.0,False,True
mp-2194,TiSe2,"Se, Ti",2,0.0,Trigonal,164,P-3m1,0.0,False,True
mp-2721,Ce2O3,"Ce, O",2,0.07930416925000117,Trigonal,164,P-3m1,0.0,False,True
mp-1008632,V2C,"C, V",2,0.0018388041666668187,Trigonal,164,P-3m1,0.0,False,True
mp-27785,TiBr2,"Br, Ti",2,0.0,Trigonal,164,P-3m1,0.0,False,True
mp-7716,SbTe,"Sb, Te",2,0.008739101785717018,Trigonal,164,P-3m1,0.0,False,True
mp-1225705,CuH,"Cu, H",2,0.09820546499999949,Trigonal,164,P-3m1,0.0,True,True
mp-22116,EuGe2,"Eu, Ge",2,0.04818594722221903,Trigonal,164,P-3m1,0.0,False,True
mp-570081,CuI,"Cu, I",2,0.0,Trigonal,164,P-3m1,1.6315,True,False
mp-1218120,Ta3C2,"C, Ta",2,0.0021180719999964737,Trigonal,164,P-3m1,0.0,True,True
mp-567359,CdI2,"Cd, I",2,0.00025284911111356223,Trigonal,164,P-3m1,2.2640000000000002,False,False
mp-29957,Zr5Te6,"Te, Zr",2,0.01947019318182086,Trigonal,164,P-3m1,0.00509999999999966,False,False
mp-7390,SrGe2,"Ge, Sr",2,0.0,Trigonal,164,P-3m1,0.0,False,True
mp-29941,Sc2C,"C, Sc",2,0.0,Trigonal,164,P-3m1,0.0,False,True
mp-1009654,CaGe2,"Ca, Ge",2,0.024728010000002243,Trigonal,164,P-3m1,0.0,True,True
mp-1023938,Te2Mo,"Mo, Te",2,0.011437529999998475,Trigonal,164,P-3m1,1.0496999999999999,True,False
mp-1018125,Ti2Re,"Re, Ti",2,0.0,Trigonal,164,P-3m1,0.0,True,True
mp-2318,Nb2C,"C, Nb",2,0.010142456666665467,Trigonal,164,P-3m1,0.0,False,True
mp-1206370,Mg2Sb3,"Mg, Sb",2,0.07599098283333383,Trigonal,164,P-3m1,0.0,True,True
mp-510437,In3Pd2,"In, Pd",2,0.0,Trigonal,164,P-3m1,0.0,False,True
mp-567442,CdI2,"Cd, I",2,0.0005142638888897544,Trigonal,164,P-3m1,2.3555,False,False
mp-30034,MgBr2,"Br, Mg",2,0.0,Trigonal,164,P-3m1,4.4707,False,False
mp-10228,NbSe2,"Nb, Se",2,0.051671131666665815,Trigonal,164,P-3m1,0.0,False,True
mp-762,PtS2,"Pt, S",2,0.0,Trigonal,164,P-3m1,1.5467000000000004,False,False
mp-2076,ZrSe2,"Se, Zr",2,0.0,Trigonal,164,P-3m1,0.3296000000000001,False,False
mp-1115,PtSe2,"Pt, Se",2,0.0,Trigonal,164,P-3m1,0.6193,False,False
mp-1968,La2O3,"La, O",2,0.0,Trigonal,164,P-3m1,3.8247999999999998,False,False
mp-547622,Pm2O3,"O, Pm",2,0.01233116899999942,Trigonal,164,P-3m1,3.8673,False,False
mp-13066,Er2O3,"Er, O",2,0.05974014150000073,Trigonal,164,P-3m1,4.196899999999999,True,False
mp-1224697,Fe2Ni,"Fe, Ni",2,0.08932948666666718,Trigonal,164,P-3m1,0.0,True,True
mp-11397,Ga3Ni2,"Ga, Ni",2,0.0,Trigonal,164,P-3m1,0.0,False,True
mp-21385,In3Ni2,"In, Ni",2,0.0,Trigonal,164,P-3m1,0.0,False,True
mp-8372,CaSi2,"Ca, Si",2,0.019487428333334833,Trigonal,164,P-3m1,0.0,False,True
mp-20470,Gd2O3,"Gd, O",2,0.03117392249999895,Trigonal,164,P-3m1,2.6982999999999997,False,False
mp-1221793,Mn2N,"Mn, N",2,0.07017895083333237,Trigonal,164,P-3m1,0.0,True,True
mp-567259,CdI2,"Cd, I",2,0.0005410511111105798,Trigonal,164,P-3m1,2.4195,False,False
mp-1039090,Ce2Mg,"Ce, Mg",2,0.07001644444444466,Trigonal,164,P-3m1,0.0,True,True
mp-567296,CdI2,"Cd, I",2,0.00021086666666603193,Trigonal,164,P-3m1,2.3217999999999996,False,False
mp-23250,UCl6,"Cl, U",2,0.0,Trigonal,164,P-3m1,1.5811,False,False
mp-1247784,Cs2Se,"Cs, Se",2,0.09892919333333161,Trigonal,164,P-3m1,1.2841,True,False
mp-973,U2N3,"N, U",2,0.02716184424999568,Trigonal,164,P-3m1,0.0,False,True
mp-1206157,Cu7Si2,"Cu, Si",2,0.06713821451851842,Trigonal,164,P-3m1,0.0,True,True
mp-1023942,Te2W,"Te, W",2,0.043783088333334774,Trigonal,164,P-3m1,1.0420999999999998,True,False
mp-13063,Tb2O3,"O, Tb",2,0.03920931100000047,Trigonal,164,P-3m1,4.1338,True,False