material_id,formula,elements,num_elements,energy_above_hull,crystal_system,spacegroup_number,spacegroup_symbol,band_gap,theoretical,is_metal
mp-1193202,Mo2Ru,"Mo, Ru",2,0.04611149277777926,Tetragonal,136,P4_2/mnm,0.0,False,True
mp-22904,CaCl2,"Ca, Cl",2,0.0018690908333329759,Tetragonal,136,P4_2/mnm,5.3533,False,False
mp-560902,MnF2,"F, Mn",2,0.0,Tetragonal,136,P4_2/mnm,2.5362999999999998,False,False
mp-21596,Ba3Ge4,"Ba, Ge",2,0.0013209728571439427,Tetragonal,136,P4_2/mnm,0.0,False,True
mp-1873,ZnF2,"F, Zn",2,0.0,Tetragonal,136,P4_2/mnm,3.4592,False,False
mp-980938,Tb3Al2,"Al, Tb",2,0.02419714924999994,Tetragonal,136,P4_2/mnm,0.0,False,True
mp-7599,BeO,"Be, O",2,0.015346631250000797,Tetragonal,136,P4_2/mnm,7.0846,False,False
mp-2019999,BiO2,"Bi, O",2,0.07239427833333423,Tetragonal,136,P4_2/mnm,0.0,True,True
mp-1207421,Zr3Zn2,"Zn, Zr",2,0.03175386450000062,Tetragonal,136,P4_2/mnm,0.0,True,True
mp-862773,TeI2,"I, Te",2,0.0686231319444448,Tetragonal,136,P4_2/mnm,0.7359,True,False
mp-1188393,Ga3Re,"Ga, Re",2,0.0,Tetragonal,136,P4_2/mnm,0.0,False,True
mp-20488,CrF4,"Cr, F",2,0.006119065500000964,Tetragonal,136,P4_2/mnm,1.0142,False,False
mp-510408,MnO2,"Mn, O",2,0.006413425555553687,Tetragonal,136,P4_2/mnm,0.0,False,True
mp-861727,PuBr2,"Br, Pu",2,0.0,Tetragonal,136,P4_2/mnm,0.0,True,True
mp-570232,TbCl3,"Cl, Tb",2,0.016494364374999293,Tetragonal,136,P4_2/mnm,4.5219000000000005,False,False
mp-20994,TaO2,"O, Ta",2,0.07748120566666827,Tetragonal,136,P4_2/mnm,0.0,False,True
mp-861871,SeI2,"I, Se",2,0.0,Tetragonal,136,P4_2/mnm,0.9079000000000002,True,False
mp-1184708,GeBr2,"Br, Ge",2,0.06055050645833404,Tetragonal,136,P4_2/mnm,1.4259,True,False
mp-555908,CoF2,"Co, F",2,0.0,Tetragonal,136,P4_2/mnm,2.2721,False,False
mp-862871,PbCl2,"Cl, Pb",2,0.042926025833335046,Tetragonal,136,P4_2/mnm,3.1026,True,False
mp-11725,CO2,"C, O",2,0.009146131666666335,Tetragonal,136,P4_2/mnm,6.4419,True,False
mp-973953,NdCl2,"Cl, Nd",2,0.08784575138889039,Tetragonal,136,P4_2/mnm,0.0,True,True
mp-607450,In3Ru,"In, Ru",2,0.0,Tetragonal,136,P4_2/mnm,0.2290000000000001,False,False
mp-1184048,Eu2N,"Eu, N",2,0.06670249083333246,Tetragonal,136,P4_2/mnm,0.0,True,True
mp-16508,Lu3Al2,"Al, Lu",2,0.0,Tetragonal,136,P4_2/mnm,0.0,False,True
mp-1018886,PdO2,"O, Pd",2,0.0,Tetragonal,136,P4_2/mnm,0.0,False,True
mp-1619,Ba3Si4,"Ba, Si",2,0.0,Tetragonal,136,P4_2/mnm,0.0,False,True
mp-1187178,SrI2,"I, Sr",2,0.020952065000003017,Tetragonal,136,P4_2/mnm,3.8101,True,False
mp-1186558,PmBr2,"Br, Pm",2,0.002024725277781414,Tetragonal,136,P4_2/mnm,0.0,True,True
mp-1014265,Zr2N,"N, Zr",2,0.0,Tetragonal,136,P4_2/mnm,0.0,True,True
mp-17974,Na3Hg2,"Hg, Na",2,0.0,Tetragonal,136,P4_2/mnm,0.0,False,True
mp-757186,MnF3,"F, Mn",2,0.042534918749998596,Tetragonal,136,P4_2/mnm,0.8001,True,False
mp-978846,SnI2,"I, Sn",2,0.02481924444443928,Tetragonal,136,P4_2/mnm,1.1995999999999998,True,False
mp-8462,Hf3Al2,"Al, Hf",2,0.03970273833332527,Tetragonal,136,P4_2/mnm,0.0,False,True
mp-765663,VF3,"F, V",2,0.05142429500000034,Tetragonal,136,P4_2/mnm,1.4998,True,False
mp-1205302,TcO2,"O, Tc",2,0.07857578833333356,Tetragonal,136,P4_2/mnm,0.0,True,True
mp-16723,Y3Al2,"Al, Y",2,0.0034791360000010485,Tetragonal,136,P4_2/mnm,0.0,False,True
mp-19094,VO2,"O, V",2,0.04219247833331785,Tetragonal,136,P4_2/mnm,0.0,False,True
mp-644607,CO2,"C, O",2,0.005399366666665628,Tetragonal,136,P4_2/mnm,6.3098,False,False
mp-1058,PdF2,"F, Pd",2,0.03566300916666698,Tetragonal,136,P4_2/mnm,0.0,False,True
mp-672204,Ga3Ru,"Ga, Ru",2,0.0,Tetragonal,136,P4_2/mnm,0.0,False,True
mp-1188836,V5B3,"B, V",2,0.057914717187498965,Tetragonal,140,I4/mcm,0.0,True,True
mp-510494,La5Sn3,"La, Sn",2,0.0,Tetragonal,140,I4/mcm,0.0,False,True
mp-1397055,CoF4,"Co, F",2,0.0072601359999993065,Tetragonal,140,I4/mcm,1.6139999999999999,True,False
mp-31219,Si3W5,"Si, W",2,0.025065460000000428,Tetragonal,140,I4/mcm,0.0,False,True
mp-328,Zr2Ni,"Ni, Zr",2,0.0,Tetragonal,140,I4/mcm,0.0,False,True
mp-760385,In2Ag,"Ag, In",2,0.09594290731481792,Tetragonal,140,I4/mcm,0.0,True,True
mp-9939,Hf2Ge,"Ge, Hf",2,0.0,Tetragonal,140,I4/mcm,0.0,False,True
mp-16315,GePt3,"Ge, Pt",2,0.0,Tetragonal,140,I4/mcm,0.0,False,True
mp-30723,Th2Hg,"Hg, Th",2,0.0,Tetragonal,140,I4/mcm,0.0,False,True
mp-1195872,Sm3Ga2,"Ga, Sm",2,0.0,Tetragonal,140,I4/mcm,0.016300000000000203,False,False
mp-1189085,Er5Tl3,"Er, Tl",2,0.019429078125002164,Tetragonal,140,I4/mcm,0.0,False,True
mp-570293,Nb5Ga3,"Ga, Nb",2,0.016266065937500684,Tetragonal,140,I4/mcm,0.0,False,True
mp-567735,Nd5Si3,"Nd, Si",2,0.0,Tetragonal,140,I4/mcm,0.0,False,True
mp-7506,Cr5Si3,"Cr, Si",2,0.05473733324999941,Tetragonal,140,I4/mcm,0.0,False,True
mp-569833,Zr2Ga,"Ga, Zr",2,0.0,Tetragonal,140,I4/mcm,0.0,False,True
mp-21117,FeGe2,"Fe, Ge",2,0.01809151722222424,Tetragonal,140,I4/mcm,0.0,False,True
mp-542484,Sr5Cd3,"Cd, Sr",2,0.0,Tetragonal,140,I4/mcm,0.0,False,True
mp-1080448,AlPt3,"Al, Pt",2,0.0024148456250046024,Tetragonal,140,I4/mcm,0.0,False,True
mp-20318,Mn2B,"B, Mn",2,0.09845301683908225,Tetragonal,140,I4/mcm,0.0,False,True
mp-1651,Th2Al,"Al, Th",2,0.0,Tetragonal,140,I4/mcm,0.0,False,True
mp-1105771,Tb5Tl3,"Tb, Tl",2,0.02782638062500009,Tetragonal,140,I4/mcm,0.0,False,True
mp-17720,Sr5Sn3,"Sn, Sr",2,0.003021452500000521,Tetragonal,140,I4/mcm,0.0,False,True
mp-1214016,Ca5Sn3,"Ca, Sn",2,0.007840859131943656,Tetragonal,140,I4/mcm,0.0,True,True
mp-570362,Sr5In3,"In, Sr",2,0.00672603554228024,Tetragonal,140,I4/mcm,0.0,False,True
mp-15617,Cr5B3,"B, Cr",2,0.0419593625000001,Tetragonal,140,I4/mcm,0.0,False,True
mp-16724,Zr5Al3,"Al, Zr",2,0.022739610249995934,Tetragonal,140,I4/mcm,0.0,False,True
mp-17757,Sr5Ge3,"Ge, Sr",2,0.0052823724999999655,Tetragonal,140,I4/mcm,0.0,False,True
mp-1203103,Nd3Ga2,"Ga, Nd",2,0.0,Tetragonal,140,I4/mcm,0.0,False,True
mp-1106252,Nd5Ga3,"Ga, Nd",2,0.008376320572917706,Tetragonal,140,I4/mcm,0.0,False,True
mp-570287,Ta5Si3,"Si, Ta",2,0.05680052125000401,Tetragonal,140,I4/mcm,0.0,False,True
mp-1197194,Ho3Ga2,"Ga, Ho",2,0.0,Tetragonal,140,I4/mcm,0.02760000000000007,False,False
mp-570696,Pr5Sn3,"Pr, Sn",2,0.0,Tetragonal,140,I4/mcm,0.0,False,True
mp-861,Hf2Ni,"Hf, Ni",2,0.013278753333331395,Tetragonal,140,I4/mcm,0.0,False,True
mp-493,Co2B,"B, Co",2,0.023685056666666426,Tetragonal,140,I4/mcm,0.0,False,True
mp-21428,Th2In,"In, Th",2,0.0,Tetragonal,140,I4/mcm,0.0,False,True
mp-2501,BMo2,"B, Mo",2,0.02714571083333084,Tetragonal,140,I4/mcm,0.0,False,True
mp-1185791,Mg2Ni,"Mg, Ni",2,0.0019095833333331313,Tetragonal,140,I4/mcm,0.0,True,True
mp-2536,Ni2B,"B, Ni",2,0.0,Tetragonal,140,I4/mcm,0.0,False,True
mp-743,RbN3,"N, Rb",2,0.0,Tetragonal,140,I4/mcm,4.1608,False,False
mp-2851,VSb2,"Sb, V",2,0.05616110555555309,Tetragonal,140,I4/mcm,0.0,False,True
mp-1190061,Eu5Si3,"Eu, Si",2,0.0,Tetragonal,140,I4/mcm,0.0,False,True
mp-9938,Hf2Si,"Hf, Si",2,0.0,Tetragonal,140,I4/mcm,0.0,False,True
mp-1198319,Ho3Ir2,"Ho, Ir",2,0.017080930392856963,Tetragonal,140,I4/mcm,0.0,False,True
mp-570896,Tl2Pd,"Pd, Tl",2,0.0,Tetragonal,140,I4/mcm,0.0,False,True
mp-570469,Pr5Tl3,"Pr, Tl",2,0.0,Tetragonal,140,I4/mcm,0.0,False,True
mp-680302,Ca31Sn20,"Ca, Sn",2,0.0,Tetragonal,140,I4/mcm,0.0,False,True
mp-1077297,Zr2Ir,"Ir, Zr",2,0.010654014722220495,Tetragonal,140,I4/mcm,0.0,False,True
mp-1204352,Y3Ga2,"Ga, Y",2,0.0,Tetragonal,140,I4/mcm,0.0,False,True
mp-1198715,Er3Rh2,"Er, Rh",2,0.0,Tetragonal,140,I4/mcm,0.0,False,True
mp-1884,Ca5Ge3,"Ca, Ge",2,0.0018216525000003259,Tetragonal,140,I4/mcm,0.0,False,True
mp-16370,Th2Ge,"Ge, Th",2,0.0,Tetragonal,140,I4/mcm,0.0,False,True
mp-570175,Ce5Si3,"Ce, Si",2,0.0,Tetragonal,140,I4/mcm,0.0,False,True
mp-1097011,IN2,"I, N",2,0.001382934999999641,Tetragonal,140,I4/mcm,0.0,True,True
mp-746,Sr5Si3,"Si, Sr",2,0.0001182899999996323,Tetragonal,140,I4/mcm,0.0,False,True
mp-20155,CoSn2,"Co, Sn",2,0.012927669861110047,Tetragonal,140,I4/mcm,0.0,False,True
mp-2783,Ta2Si,"Si, Ta",2,0.0,Tetragonal,140,I4/mcm,0.0,False,True
mp-12773,Zr2Al,"Al, Zr",2,0.04362543433332888,Tetragonal,140,I4/mcm,0.0,False,True
mp-568411,Th2Ga,"Ga, Th",2,0.0,Tetragonal,140,I4/mcm,0.0,False,True
mp-554543,SiO2,"O, Si",2,0.021344328472222784,Tetragonal,140,I4/mcm,5.4402,True,False
mp-1950,SrS2,"S, Sr",2,0.023715329062502732,Tetragonal,140,I4/mcm,1.2822,False,False
mp-1105805,Pr5Ga3,"Ga, Pr",2,0.015736304687500535,Tetragonal,140,I4/mcm,0.0,False,True
mp-1204219,Dy3Ir2,"Dy, Ir",2,0.008753286285712925,Tetragonal,140,I4/mcm,0.0,False,True
mp-998,Al2Cu,"Al, Cu",2,0.04758887666666567,Tetragonal,140,I4/mcm,0.0,False,True
mp-1867,Ta2Ni,"Ni, Ta",2,0.0,Tetragonal,140,I4/mcm,0.0,False,True
mp-1197692,Tb3Ga2,"Ga, Tb",2,0.0,Tetragonal,140,I4/mcm,0.016799999999999926,False,False
mp-1629,Th2Au,"Au, Th",2,0.0,Tetragonal,140,I4/mcm,0.0,False,True
mp-1196567,Er3Ir2,"Er, Ir",2,0.019318772571428333,Tetragonal,140,I4/mcm,0.0,False,True
mp-21108,U6Fe,"Fe, U",2,0.016314791071433632,Tetragonal,140,I4/mcm,0.0,False,True
mp-11278,Ta2Be,"Be, Ta",2,0.0,Tetragonal,140,I4/mcm,0.0,False,True
mp-982261,PbSe2,"Pb, Se",2,0.04370954364583568,Tetragonal,140,I4/mcm,0.0,False,True
mp-1076974,Th2Tl,"Th, Tl",2,0.0004556144444478605,Tetragonal,140,I4/mcm,0.0,False,True
mp-1159,Zr2Fe,"Fe, Zr",2,0.004575485666668655,Tetragonal,140,I4/mcm,0.0,False,True
mp-1189870,Ca5Ga3,"Ca, Ga",2,0.000224381764706294,Tetragonal,140,I4/mcm,0.0,False,True
mp-1105755,Nd5Tl3,"Nd, Tl",2,0.0,Tetragonal,140,I4/mcm,0.0,False,True
mp-2150,BaTe2,"Ba, Te",2,0.0,Tetragonal,140,I4/mcm,0.3512999999999993,False,False
mp-510219,Sn2Ru,"Ru, Sn",2,0.0667029431666677,Tetragonal,140,I4/mcm,0.0,False,True
mp-1205197,Dy3Ga2,"Dy, Ga",2,0.0,Tetragonal,140,I4/mcm,0.005699999999999594,False,False
mp-322,TlS,"S, Tl",2,0.051495652916663914,Tetragonal,140,I4/mcm,0.7034000000000002,False,False
mp-1198546,Er3Ga2,"Er, Ga",2,0.0,Tetragonal,140,I4/mcm,0.0024999999999999467,False,False
mp-542342,Dy5Ga3,"Dy, Ga",2,0.012315424296875932,Tetragonal,140,I4/mcm,0.0,False,True
mp-1212214,Ho5Tl3,"Ho, Tl",2,0.020055028125000263,Tetragonal,140,I4/mcm,0.0,False,True
mp-1105948,Ce5Sn3,"Ce, Sn",2,0.025247665624994475,Tetragonal,140,I4/mcm,0.0,False,True
mp-1989,Ta5Si3,"Si, Ta",2,0.0,Tetragonal,140,I4/mcm,0.0,False,True
mp-1332,Si3Mo5,"Mo, Si",2,0.0,Tetragonal,140,I4/mcm,0.0,False,True
mp-16842,Nb5Ge3,"Ge, Nb",2,0.0033134656250002337,Tetragonal,140,I4/mcm,0.0,False,True
mp-636821,U6Ni,"Ni, U",2,0.045752358526790715,Tetragonal,140,I4/mcm,0.0,False,True
mp-1202922,Tb3Rh2,"Rh, Tb",2,0.0,Tetragonal,140,I4/mcm,0.0,False,True
mp-17094,Ge3Mo5,"Ge, Mo",2,0.04250976249999994,Tetragonal,140,I4/mcm,0.0,False,True
mp-1105764,Pr5Si3,"Pr, Si",2,0.0006434873958314213,Tetragonal,140,I4/mcm,0.0,False,True
mp-1052023,Mg2Cu,"Cu, Mg",2,0.009202400000000388,Tetragonal,140,I4/mcm,0.0,True,True
mp-637308,Ce5Sn3,"Ce, Sn",2,0.0,Tetragonal,140,I4/mcm,0.0,False,True
mp-30368,Ca5Au3,"Au, Ca",2,0.0,Tetragonal,140,I4/mcm,0.0,False,True
mp-569837,Ti3Sb,"Sb, Ti",2,0.055297876874998764,Tetragonal,140,I4/mcm,0.0,False,True
mp-574,Ta2Co,"Co, Ta",2,0.0,Tetragonal,140,I4/mcm,0.0,False,True
mp-1105942,Sm5Ga3,"Ga, Sm",2,0.01401882367187568,Tetragonal,140,I4/mcm,0.0,False,True
mp-22795,Pb2Au,"Au, Pb",2,0.0,Tetragonal,140,I4/mcm,0.0,False,True
mp-30571,Tl2Au,"Au, Tl",2,0.0,Tetragonal,140,I4/mcm,0.0,False,True
mp-554175,SiO2,"O, Si",2,0.09830272041666532,Tetragonal,140,I4/mcm,5.7494,True,False
mp-2666,CrSb2,"Cr, Sb",2,0.05082739499999889,Tetragonal,140,I4/mcm,0.0,False,True
mp-17325,Ba5Sn3,"Ba, Sn",2,0.011261958125002636,Tetragonal,140,I4/mcm,0.0,False,True
mp-321,RhPb2,"Pb, Rh",2,0.0,Tetragonal,140,I4/mcm,0.0,False,True
mp-17593,Ta5Ge3,"Ge, Ta",2,0.0,Tetragonal,140,I4/mcm,0.0,False,True
mp-1101251,Tl2Pt,"Pt, Tl",2,0.06924373462962308,Tetragonal,140,I4/mcm,0.0,True,True
mp-568195,U6Mn,"Mn, U",2,0.036532812142862525,Tetragonal,140,I4/mcm,0.0,False,True
mp-1188215,Nb5Ge3,"Ge, Nb",2,0.0,Tetragonal,140,I4/mcm,0.0,False,True
mp-20320,InTe,"In, Te",2,0.038631967171053105,Tetragonal,140,I4/mcm,0.0,False,True
mp-1726,KO3,"K, O",2,0.08516528687500013,Tetragonal,140,I4/mcm,0.6496,False,False
mp-1188446,Sm5Tl3,"Sm, Tl",2,0.0,Tetragonal,140,I4/mcm,0.0,False,True
mp-1032,Ta2B,"B, Ta",2,0.03365034711111292,Tetragonal,140,I4/mcm,0.0,False,True
mp-30562,Sc2Co,"Co, Sc",2,0.06657350333333234,Tetragonal,140,I4/mcm,0.0,False,True
mp-2786,Ca5Zn3,"Ca, Zn",2,0.0,Tetragonal,140,I4/mcm,0.0,False,True
mp-1095578,Ga5Ni,"Ga, Ni",2,0.021044003333335226,Tetragonal,140,I4/mcm,0.0,False,True
mp-1188153,Ti5Ga3,"Ga, Ti",2,0.0,Tetragonal,140,I4/mcm,0.0,False,True
mp-1105651,Ca5Pt3,"Ca, Pt",2,0.02901335807291261,Tetragonal,140,I4/mcm,0.0,False,True
mp-1363,Na2Au,"Au, Na",2,0.0,Tetragonal,140,I4/mcm,0.0,False,True
mp-582635,U6Co,"Co, U",2,0.040777446071430745,Tetragonal,140,I4/mcm,0.0,False,True
mp-13686,Nb5Si3,"Nb, Si",2,0.0,Tetragonal,140,I4/mcm,0.0,False,True
mp-2848,Pu5Ir3,"Ir, Pu",2,0.0,Tetragonal,140,I4/mcm,0.0,False,True
mp-569251,Lu7Sb3,"Lu, Sb",2,0.0,Tetragonal,140,I4/mcm,0.0,False,True
mp-1219422,Sc7As3,"As, Sc",2,0.0,Tetragonal,140,I4/mcm,0.0,True,True
mp-568144,Dy5In3,"Dy, In",2,0.0,Tetragonal,140,I4/mcm,0.0,False,True
mp-568376,Ta5Ga3,"Ga, Ta",2,0.015532069854167219,Tetragonal,140,I4/mcm,0.0,False,True
mp-23180,In5Bi3,"Bi, In",2,0.08969850770833165,Tetragonal,140,I4/mcm,0.0,False,True
mp-568671,V5Si3,"Si, V",2,0.0,Tetragonal,140,I4/mcm,0.0,False,True
mp-1188772,Tb5Tl3,"Tb, Tl",2,0.0,Tetragonal,140,I4/mcm,0.0,False,True
mp-956,U3Si,"Si, U",2,0.002126097499996149,Tetragonal,140,I4/mcm,0.0,False,True
mp-680426,Pu31Pt20,"Pt, Pu",2,0.09785099075980597,Tetragonal,140,I4/mcm,0.0,False,True
mp-793,Ca5Si3,"Ca, Si",2,0.0,Tetragonal,140,I4/mcm,0.0,False,True
mp-30371,Cd5Au3,"Au, Cd",2,0.0,Tetragonal,140,I4/mcm,0.0,False,True
mp-1202141,Tm3Ga2,"Ga, Tm",2,0.0,Tetragonal,140,I4/mcm,0.0,False,True
mp-1034,Th2Cu,"Cu, Th",2,0.0051136466666665825,Tetragonal,140,I4/mcm,0.0,False,True
mp-1278,Zr2Si,"Si, Zr",2,0.0,Tetragonal,140,I4/mcm,0.0,False,True
mp-31154,Ca5Hg3,"Ca, Hg",2,0.008761129687496094,Tetragonal,140,I4/mcm,0.0,False,True
mp-1188342,Tb5Ga3,"Ga, Tb",2,0.014742786718748846,Tetragonal,140,I4/mcm,0.0,False,True
mp-755435,Tl2Au,"Au, Tl",2,0.017535776666669278,Tetragonal,140,I4/mcm,0.0,True,True
mp-568,TiSb2,"Sb, Ti",2,0.0,Tetragonal,140,I4/mcm,0.0,False,True
mp-1915,Fe2B,"B, Fe",2,0.0,Tetragonal,140,I4/mcm,0.0,False,True
mp-2233,Th2Ag,"Ag, Th",2,0.01875231166667124,Tetragonal,140,I4/mcm,0.0,False,True
mp-1113,BW2,"B, W",2,0.0,Tetragonal,140,I4/mcm,0.0,False,True
mp-30660,Ga5Pd,"Ga, Pd",2,0.0038661147222232017,Tetragonal,140,I4/mcm,0.0,False,True
mp-1148,Th2Pd,"Pd, Th",2,6.464916666715226e-05,Tetragonal,140,I4/mcm,0.0,False,True
mp-1189750,Ho5In3,"Ho, In",2,0.0,Tetragonal,140,I4/mcm,0.0,False,True
mp-13208,Mg2Pt,"Mg, Pt",2,0.0,Tetragonal,140,I4/mcm,0.0,False,True
mp-10961,La5Si3,"La, Si",2,0.0,Tetragonal,140,I4/mcm,0.0,False,True
mp-827,KN3,"K, N",2,0.0,Tetragonal,140,I4/mcm,3.9394,False,False
mp-20599,PdPb2,"Pb, Pd",2,0.0,Tetragonal,140,I4/mcm,0.0,False,True
mp-862621,GaPt3,"Ga, Pt",2,0.0,Tetragonal,140,I4/mcm,0.0,False,True
mp-1199315,Lu3Ga2,"Ga, Lu",2,0.0,Tetragonal,140,I4/mcm,0.026499999999999968,False,False
mp-510557,CsN3,"Cs, N",2,0.0,Tetragonal,140,I4/mcm,4.2395,False,False
mp-2081,TlTe,"Te, Tl",2,0.038210205312499745,Tetragonal,140,I4/mcm,0.0,False,True
mp-2387,Th2Zn,"Th, Zn",2,0.0,Tetragonal,140,I4/mcm,0.0,False,True
mp-15809,Cr2B,"B, Cr",2,0.06716988333333163,Tetragonal,140,I4/mcm,0.0,False,True
mp-565,Sn2Rh,"Rh, Sn",2,0.04618277416666672,Tetragonal,140,I4/mcm,0.0,False,True
mp-1025039,PbS2,"Pb, S",2,0.0,Tetragonal,140,I4/mcm,0.08300000000000018,True,False
mp-1105285,V5Ge3,"Ge, V",2,0.0,Tetragonal,140,I4/mcm,0.0,False,True
mp-12772,Hf2Al,"Al, Hf",2,0.03718523444443633,Tetragonal,140,I4/mcm,0.0,False,True
mp-31172,Ca5Ag3,"Ag, Ca",2,0.0,Tetragonal,140,I4/mcm,0.0,False,True
mp-1189395,Dy5Tl3,"Dy, Tl",2,0.019271709999998166,Tetragonal,140,I4/mcm,0.0,False,True
mp-554258,SiO2,"O, Si",2,0.017633480138890434,Tetragonal,140,I4/mcm,5.4489,True,False
mp-542328,Ce5Ga3,"Ce, Ga",2,0.004210211874998038,Tetragonal,140,I4/mcm,0.0,False,True
mp-30666,Sc3Ga2,"Ga, Sc",2,0.0,Tetragonal,140,I4/mcm,0.0,False,True
mp-622106,Ba5Pb3,"Ba, Pb",2,0.015117826874995188,Tetragonal,140,I4/mcm,0.0,False,True
mp-571664,Zr2Rh,"Rh, Zr",2,0.00028326999999706004,Tetragonal,140,I4/mcm,0.0,False,True
mp-19974,In2Ag,"Ag, In",2,0.0,Tetragonal,140,I4/mcm,0.0,False,True
mp-567996,Nb5Si3,"Nb, Si",2,0.05228759999999966,Tetragonal,140,I4/mcm,0.0,False,True
mp-174,Tl5Te3,"Te, Tl",2,0.010876002705969334,Tetragonal,140,I4/mcm,0.0,False,True
mp-571160,Tl2Pt,"Pt, Tl",2,0.0,Tetragonal,140,I4/mcm,0.0,False,True
mp-1106120,Sr5Tl3,"Sr, Tl",2,0.0013760289583366614,Tetragonal,140,I4/mcm,0.0,False,True
mp-22752,FeSn2,"Fe, Sn",2,0.013997236666665636,Tetragonal,140,I4/mcm,0.0,False,True
mp-1189767,La5Tl3,"La, Tl",2,0.0,Tetragonal,140,I4/mcm,0.0,False,True
mp-17615,Ta5Ge3,"Ge, Ta",2,0.023934453125001198,Tetragonal,140,I4/mcm,0.0,False,True
mp-1204272,Y3Ir2,"Ir, Y",2,0.016821361321429862,Tetragonal,140,I4/mcm,0.0,False,True
mp-21318,PtPb2,"Pb, Pt",2,0.05966325555555585,Tetragonal,140,I4/mcm,0.0,False,True
mp-1188934,Eu5Ge3,"Eu, Ge",2,0.0,Tetragonal,140,I4/mcm,0.0,False,True
mp-1841,SiIr3,"Ir, Si",2,0.0,Tetragonal,140,I4/mcm,0.0,False,True
mp-1836,TlSe,"Se, Tl",2,0.0,Tetragonal,140,I4/mcm,0.19799999999999995,False,False
mp-1205201,Dy3Rh2,"Dy, Rh",2,0.0,Tetragonal,140,I4/mcm,0.0,False,True
mp-20086,MnSn2,"Mn, Sn",2,0.009669549022984114,Tetragonal,140,I4/mcm,0.0,False,True
mp-22142,SiSe2,"Se, Si",2,0.010612622083332468,Tetragonal,140,I4/mcm,2.2091000000000003,True,False
mp-1100783,Sr2Mg,"Mg, Sr",2,0.036657680000000026,Tetragonal,140,I4/mcm,0.0,True,True
mp-1271079,CoF3,"Co, F",2,0.0,Tetragonal,140,I4/mcm,1.6435,True,False
mp-628,Zr2Co,"Co, Zr",2,0.04368050166666748,Tetragonal,140,I4/mcm,0.0,False,True
mp-1196999,Y3Rh2,"Rh, Y",2,0.0,Tetragonal,140,I4/mcm,0.0,False,True
mp-1188102,V5Si3,"Si, V",2,0.034149754999994286,Tetragonal,140,I4/mcm,0.0,True,True
mp-1094140,MnGe2,"Ge, Mn",2,0.04749240666666665,Tetragonal,140,I4/mcm,0.0,True,True
mp-30572,Hf2Ga,"Ga, Hf",2,0.0,Tetragonal,140,I4/mcm,0.0,False,True
mp-1198700,Tb3Ir2,"Ir, Tb",2,0.010391176714285244,Tetragonal,140,I4/mcm,0.0,False,True
mp-1188462,Ta5Ga3,"Ga, Ta",2,0.014918429062497296,Tetragonal,140,I4/mcm,0.0,False,True
mp-1200753,Ho3Rh2,"Ho, Rh",2,0.0,Tetragonal,140,I4/mcm,0.0,False,True
mp-973748,LiIn3,"In, Li",2,0.014984695000002546,Tetragonal,139,I4/mmm,0.0,True,True
mp-1185103,La3Tl,"La, Tl",2,0.01963512000000378,Tetragonal,139,I4/mmm,0.0,True,True
mp-1183432,BeNi3,"Be, Ni",2,0.07519452749999989,Tetragonal,139,I4/mmm,0.0,True,True
mp-12666,Be12Pd,"Be, Pd",2,0.07945158115384565,Tetragonal,139,I4/mmm,0.0,False,True
mp-1209233,Sc11Ga10,"Ga, Sc",2,0.025685272380950863,Tetragonal,139,I4/mmm,0.0,True,True
mp-1187110,Sr3Ca,"Ca, Sr",2,0.04450788999999844,Tetragonal,139,I4/mmm,0.0,True,True
mp-1094735,Ca3Mg,"Ca, Mg",2,0.040223500624999575,Tetragonal,139,I4/mmm,0.0,True,True
mp-1186050,Na3Hg,"Hg, Na",2,0.021215371458335852,Tetragonal,139,I4/mmm,0.0,True,True
mp-11464,MgHg2,"Hg, Mg",2,0.022827782499999727,Tetragonal,139,I4/mmm,0.0,False,True
mp-1185096,La3Sc,"La, Sc",2,0.053741512500000255,Tetragonal,139,I4/mmm,0.0,True,True
mp-1183838,Ce3Ho,"Ce, Ho",2,0.0942976087500007,Tetragonal,139,I4/mmm,0.0,True,True
mp-1008601,ZrAg2,"Ag, Zr",2,0.040338308333328854,Tetragonal,139,I4/mmm,0.001300000000000523,False,False
mp-569535,Ca2Bi,"Bi, Ca",2,0.0,Tetragonal,139,I4/mmm,0.0,False,True
mp-862798,Pt3W,"Pt, W",2,0.01169780500000428,Tetragonal,139,I4/mmm,0.0,True,True
mp-1203269,Ho11Sn10,"Ho, Sn",2,0.0,Tetragonal,139,I4/mmm,0.01499999999999968,False,False
mp-1105500,BaGe3,"Ba, Ge",2,0.08258939468750004,Tetragonal,139,I4/mmm,0.0,False,True
mp-2482,CaC2,"C, Ca",2,0.02221701166666623,Tetragonal,139,I4/mmm,1.3593,False,False
mp-1184034,GaNi3,"Ga, Ni",2,0.03354063000000096,Tetragonal,139,I4/mmm,0.0,True,True
mp-1183854,CePm3,"Ce, Pm",2,0.08357562812500063,Tetragonal,139,I4/mmm,0.0,True,True
mp-1104899,SmFe12,"Fe, Sm",2,0.023720881153845852,Tetragonal,139,I4/mmm,0.0,False,True
mp-20656,DyMn12,"Dy, Mn",2,0.0,Tetragonal,139,I4/mmm,0.0,False,True