material_id,formula,elements,num_elements,energy_above_hull,crystal_system,spacegroup_number,spacegroup_symbol,band_gap,theoretical,is_metal
mp-1094650,MgGa,"Ga, Mg",2,0.04222416500000037,Monoclinic,8,Cm,0.0,True,True
mp-27821,Ag3P11,"Ag, P",2,0.0,Monoclinic,8,Cm,0.8305999999999996,False,False
mp-977056,MgPt5,"Mg, Pt",2,0.06321236416666931,Monoclinic,8,Cm,0.0,True,True
mp-982380,Li2Mg,"Li, Mg",2,0.00779538166666649,Monoclinic,8,Cm,0.0,True,True
mp-1184798,InPb,"In, Pb",2,0.02718960000000692,Monoclinic,8,Cm,0.0,True,True
mp-612918,Dy3Ge4,"Dy, Ge",2,0.0015428849999992167,Monoclinic,8,Cm,0.0,True,True
mp-1094372,Sr5Mg,"Mg, Sr",2,0.05603348083333315,Monoclinic,8,Cm,0.0,True,True
mp-1094604,LiMg2,"Li, Mg",2,0.030751566666666896,Monoclinic,8,Cm,0.0,True,True
mp-1216242,W2N3,"N, W",2,0.0,Monoclinic,8,Cm,0.0,True,True
mp-976944,Li5Mg,"Li, Mg",2,0.002581708055555687,Monoclinic,8,Cm,0.0,True,True
mp-1039222,MgCd,"Cd, Mg",2,0.04685380083333368,Monoclinic,8,Cm,0.0,True,True
mp-1185962,MgPb5,"Mg, Pb",2,0.03928720833333532,Monoclinic,8,Cm,0.0,True,True
mp-1223503,K5As4,"As, K",2,0.0,Monoclinic,8,Cm,0.0,True,True
mp-1185810,Mg5Hg,"Hg, Mg",2,0.05255089249999867,Monoclinic,8,Cm,0.0,True,True
mp-1039463,MgCd,"Cd, Mg",2,0.061447467499998965,Monoclinic,8,Cm,0.0,True,True
mp-1225539,In23Se28,"In, Se",2,0.049615507189542996,Monoclinic,8,Cm,0.0,True,True
mp-1094667,MgGa,"Ga, Mg",2,0.08695790000000025,Monoclinic,8,Cm,0.0,True,True
mp-761153,U6O11,"O, U",2,0.04283329666666802,Monoclinic,8,Cm,0.0,True,True
mp-1185903,MgIn2,"In, Mg",2,0.023427722962961806,Monoclinic,8,Cm,0.0,True,True
mp-1094662,MgGa5,"Ga, Mg",2,0.044938903958332777,Monoclinic,8,Cm,0.0,True,True
mp-1094178,La5Mg,"La, Mg",2,0.04690696750000001,Monoclinic,8,Cm,0.0,True,True
mp-1094830,MgCd5,"Cd, Mg",2,0.05899173527778001,Monoclinic,8,Cm,0.0,True,True
mp-1039360,CaMg,"Ca, Mg",2,0.08023881791666598,Monoclinic,8,Cm,0.0,True,True
mp-1094485,MgZn5,"Mg, Zn",2,0.07428632595237938,Monoclinic,8,Cm,0.0,True,True
mp-1216618,Tm5S7,"S, Tm",2,0.001486744375000626,Monoclinic,8,Cm,0.0,True,True
mp-1223773,K5Bi4,"Bi, K",2,0.002252392476852716,Monoclinic,8,Cm,0.0,True,True
mp-1094649,Mg2Ga,"Ga, Mg",2,0.07632912777777712,Monoclinic,8,Cm,0.0,True,True
mp-849084,Cr5S8,"Cr, S",2,0.0181030830769231,Monoclinic,8,Cm,0.0,True,True
mp-973147,Mg5Sc,"Mg, Sc",2,0.04817820166666653,Monoclinic,8,Cm,0.0,True,True
mp-30336,Al4W,"Al, W",2,0.020917083733333897,Monoclinic,8,Cm,0.0,False,True
mp-568595,Re4Si7,"Re, Si",2,0.09071444863636202,Monoclinic,8,Cm,0.00730000000000075,False,False
mp-1094459,Mg5Zn,"Mg, Zn",2,0.06507377910000023,Monoclinic,8,Cm,0.0,True,True
mp-1185809,Mg5Ag,"Ag, Mg",2,0.04406307500000062,Monoclinic,8,Cm,0.0,True,True
mp-1094871,Ce5Mg,"Ce, Mg",2,0.09286828555555715,Monoclinic,8,Cm,0.0,True,True
mp-1222194,Mn29H2,"H, Mn",2,0.0,Monoclinic,8,Cm,0.0,True,True
mp-557881,SiO2,"O, Si",2,0.020218251944445598,Monoclinic,8,Cm,5.6379,False,False
mp-656152,Gd2Cl3,"Cl, Gd",2,0.003493344000002452,Monoclinic,8,Cm,0.16170000000000018,True,False
mp-1038797,MgCd2,"Cd, Mg",2,0.055810067222221704,Monoclinic,8,Cm,0.0,True,True
mp-1094387,MgTi5,"Mg, Ti",2,0.08925500138888864,Monoclinic,8,Cm,0.0,True,True
mp-1184255,ErMg5,"Er, Mg",2,0.059731158333333756,Monoclinic,8,Cm,0.0,True,True
mp-32591,Al2O3,"Al, O",2,0.05709709887500036,Monoclinic,8,Cm,3.0751999999999997,True,False
mp-1094215,MgSn,"Mg, Sn",2,0.06825629374999931,Monoclinic,8,Cm,0.0,True,True
mp-1039531,Ca2Mg,"Ca, Mg",2,0.08699008583333279,Monoclinic,8,Cm,0.0,True,True
mp-1228685,B8O,"B, O",2,0.020174279074073986,Monoclinic,8,Cm,2.2645,True,False
mp-1094643,MgGa,"Ga, Mg",2,0.0758000166666668,Monoclinic,8,Cm,0.0,True,True
mp-1094685,Mg16Al13,"Al, Mg",2,0.003992390603448914,Monoclinic,8,Cm,0.0,True,True
mp-1039481,CeMg,"Ce, Mg",2,0.06347062666666403,Monoclinic,8,Cm,0.0,True,True
mp-1226390,Dy3Si4,"Dy, Si",2,0.04463462897959403,Monoclinic,8,Cm,0.0,True,True
mp-1064952,NaN3,"N, Na",2,0.0006392999999995652,Monoclinic,8,Cm,4.0181,True,False
mp-1039086,Ca5Mg,"Ca, Mg",2,0.04262218041666688,Monoclinic,8,Cm,0.0,True,True
mp-1393712,Ag2S,"Ag, S",2,0.012107586666665782,Monoclinic,8,Cm,1.2299,True,False
mp-1235698,LiO8,"Li, O",2,0.06772417444444478,Monoclinic,8,Cm,0.0,True,True
mp-1199934,Ti3As,"As, Ti",2,0.0,Tetragonal,86,P4_2/n,0.0,False,True
mp-505528,Nb3P,"Nb, P",2,0.0,Tetragonal,86,P4_2/n,0.0,False,True
mp-1203324,Zr3Ge,"Ge, Zr",2,0.0,Tetragonal,86,P4_2/n,0.0,False,True
mp-17861,Tm3Sb,"Sb, Tm",2,0.010218935312501287,Tetragonal,86,P4_2/n,0.0,False,True
mp-504812,Hf3P,"Hf, P",2,0.0,Tetragonal,86,P4_2/n,0.0,False,True
mp-652044,Ce10Se19,"Ce, Se",2,0.007242356163791541,Tetragonal,86,P4_2/n,0.0,False,True
mp-639805,Ta3Ge,"Ge, Ta",2,0.0,Tetragonal,86,P4_2/n,0.0,False,True
mp-1198302,Nb3Ge,"Ge, Nb",2,0.0019252397916673658,Tetragonal,86,P4_2/n,0.0,False,True
mp-645688,Ce10S19,"Ce, S",2,0.01818648620689345,Tetragonal,86,P4_2/n,0.0,False,True
mp-10534,Sm10S19,"S, Sm",2,0.0,Tetragonal,86,P4_2/n,0.49650000000000016,False,False
mp-560786,Nd10S19,"Nd, S",2,0.0,Tetragonal,86,P4_2/n,0.5009000000000006,False,False
mp-17848,Nb3Si,"Nb, Si",2,0.012923379791665468,Tetragonal,86,P4_2/n,0.0,False,True
mp-646008,Gd10S19,"Gd, S",2,0.0,Tetragonal,86,P4_2/n,0.0,False,True
mp-18350,V3P,"P, V",2,0.0,Tetragonal,86,P4_2/n,0.0,False,True
mp-1200894,Zr3As,"As, Zr",2,0.0,Tetragonal,86,P4_2/n,0.0,False,True
mp-558229,La10S19,"La, S",2,0.0,Tetragonal,86,P4_2/n,0.7225999999999999,False,False
mp-1200337,Ce3Ge,"Ce, Ge",2,0.05531959333333525,Tetragonal,86,P4_2/n,0.0,False,True
mp-22447,Zr3P,"P, Zr",2,0.0,Tetragonal,86,P4_2/n,0.0,False,True
mp-1198134,Ta3As,"As, Ta",2,0.0,Tetragonal,86,P4_2/n,0.0,False,True
mp-1196393,Y3Sb,"Sb, Y",2,0.00798626593749674,Tetragonal,86,P4_2/n,0.0,False,True
mp-8866,La10Se19,"La, Se",2,0.0,Tetragonal,86,P4_2/n,0.5750000000000002,False,False
mp-14650,Nd10Se19,"Nd, Se",2,0.0,Tetragonal,86,P4_2/n,0.29410000000000025,False,False
mp-1202616,Hf3Ge,"Ge, Hf",2,0.01731675874999894,Tetragonal,86,P4_2/n,0.0,False,True
mp-1189365,As2O3,"As, O",2,0.029967057000000352,Tetragonal,86,P4_2/n,3.6287000000000003,True,False
mp-980420,Ti3Si,"Si, Ti",2,0.014893564444443896,Tetragonal,86,P4_2/n,0.0,False,True
mp-29832,Sm10Se19,"Se, Sm",2,0.0,Tetragonal,86,P4_2/n,0.27010000000000023,False,False
mp-504502,Ta3P,"P, Ta",2,0.0,Tetragonal,86,P4_2/n,0.0,False,True
mp-568646,Ta3Si,"Si, Ta",2,0.0,Tetragonal,86,P4_2/n,0.0,False,True
mp-1204382,Tm10S19,"S, Tm",2,0.03499817715517395,Tetragonal,86,P4_2/n,0.5289000000000001,False,False
mp-1200912,Zr3Si,"Si, Zr",2,0.020884128124997403,Tetragonal,86,P4_2/n,0.0,False,True
mp-31214,Ti3P,"P, Ti",2,0.0,Tetragonal,86,P4_2/n,0.0,False,True
mp-504425,Nb3As,"As, Nb",2,0.0,Tetragonal,86,P4_2/n,0.0,False,True
mp-561375,Pr10S19,"Pr, S",2,0.0,Tetragonal,86,P4_2/n,0.5101000000000004,False,False
mp-14613,Pr10Se19,"Pr, Se",2,0.0,Tetragonal,86,P4_2/n,0.3176999999999994,False,False
mp-1068773,LuAu4,"Au, Lu",2,0.0,Tetragonal,87,I4/m,0.0,False,True
mp-1743,Mo5As4,"As, Mo",2,0.0,Tetragonal,87,I4/m,0.0,False,True
mp-11765,Ti5Se4,"Se, Ti",2,0.0,Tetragonal,87,I4/m,0.0,False,True
mp-1105101,Ba9In4,"Ba, In",2,0.0,Tetragonal,87,I4/m,0.0,False,True
mp-8046,Ta4N5,"N, Ta",2,0.05758220472221964,Tetragonal,87,I4/m,0.0,False,True
mp-1133,V5S4,"S, V",2,0.0,Tetragonal,87,I4/m,0.0,False,True
mp-30811,Ni4W,"Ni, W",2,0.0,Tetragonal,87,I4/m,0.0,False,True
mp-9948,V5Te4,"Te, V",2,0.0,Tetragonal,87,I4/m,0.0,False,True
mp-31381,Nb21S8,"Nb, S",2,0.00912985281328993,Tetragonal,87,I4/m,0.0,False,True
mp-1207436,Zr9Pd11,"Pd, Zr",2,0.052270033250000125,Tetragonal,87,I4/m,0.0,True,True
mp-1070789,CrAu4,"Au, Cr",2,0.0,Tetragonal,87,I4/m,0.0,False,True
mp-1188785,Hf9Ni11,"Hf, Ni",2,0.06696786310000036,Tetragonal,87,I4/m,0.0,False,True
mp-1068348,TmAu4,"Au, Tm",2,0.0,Tetragonal,87,I4/m,0.0,False,True
mp-1199923,Nd5Mg41,"Mg, Nd",2,0.015008425434782424,Tetragonal,87,I4/m,0.0,False,True
mp-1201293,Sm5Mg41,"Mg, Sm",2,0.01738115304347798,Tetragonal,87,I4/m,0.0,False,True
mp-2598,Ta5Sb4,"Sb, Ta",2,0.0,Tetragonal,87,I4/m,0.0,False,True
mp-7927,Nb4N5,"N, Nb",2,0.031857427361110524,Tetragonal,87,I4/m,0.0,False,True
mp-1197847,Pr5Mg41,"Mg, Pr",2,0.0100214919565218,Tetragonal,87,I4/m,0.0,False,True
mp-274,Nb5Sb4,"Nb, Sb",2,0.0,Tetragonal,87,I4/m,0.0,False,True
mp-19395,MnO2,"Mn, O",2,0.016697983888889212,Tetragonal,87,I4/m,1.1467,False,False
mp-1852,UF5,"F, U",2,0.0,Tetragonal,87,I4/m,0.7455999999999999,False,False
mp-12884,Hf5Te4,"Hf, Te",2,0.026720308888890543,Tetragonal,87,I4/m,0.0,False,True
mp-30536,V5Sb4,"Sb, V",2,0.028563353148143733,Tetragonal,87,I4/m,0.0,False,True
mp-1402765,BiO2,"Bi, O",2,0.08971035416666684,Tetragonal,87,I4/m,0.0,True,True
mp-1087497,V5Se4,"Se, V",2,0.0,Tetragonal,87,I4/m,0.0,False,True
mp-644,K5Te3,"K, Te",2,0.0,Tetragonal,87,I4/m,0.17159999999999997,False,False
mp-30797,Nb5Te4,"Nb, Te",2,0.0,Tetragonal,87,I4/m,0.0,False,True
mp-1383701,MoO2,"Mo, O",2,0.08249721916666708,Tetragonal,87,I4/m,1.0647000000000002,True,False
mp-7498,Ti5Te4,"Te, Ti",2,0.0,Tetragonal,87,I4/m,0.0,False,True
mp-684697,Sc20O19,"O, Sc",2,0.06033612150640977,Tetragonal,87,I4/m,0.0,True,True
mp-15837,Nb5Se4,"Nb, Se",2,0.017462703999999718,Tetragonal,87,I4/m,0.0,False,True
mp-755633,K5Se3,"K, Se",2,0.00836943979166449,Tetragonal,87,I4/m,0.42790000000000006,True,False
mp-1394584,CrO2,"Cr, O",2,0.06626740499996764,Tetragonal,87,I4/m,1.0567,True,False
mp-1209933,Nd9Ga4,"Ga, Nd",2,0.0,Tetragonal,87,I4/m,0.0,True,True
mp-31472,Rb5Hg19,"Hg, Rb",2,0.0,Tetragonal,87,I4/m,0.0,False,True
mp-12635,TiAu4,"Au, Ti",2,0.0,Tetragonal,87,I4/m,0.0,False,True
mp-1271755,VO2,"O, V",2,0.06703879583331762,Tetragonal,87,I4/m,0.7642999999999998,True,False
mp-1069697,VAu4,"Au, V",2,0.0,Tetragonal,87,I4/m,0.0,False,True
mp-30387,HoAu4,"Au, Ho",2,0.0,Tetragonal,87,I4/m,0.0,False,True
mp-2790,Ni12P5,"Ni, P",2,0.0,Tetragonal,87,I4/m,0.0,False,True
mp-10734,Ti4O5,"O, Ti",2,0.05616630777777587,Tetragonal,87,I4/m,0.0,False,True
mp-350,Zr5Te4,"Te, Zr",2,0.0,Tetragonal,87,I4/m,0.0,False,True
mp-1104052,Pr9Ga4,"Ga, Pr",2,0.00921781559828716,Tetragonal,87,I4/m,0.0,False,True
mp-1188281,Cs5Te3,"Cs, Te",2,0.0004302790624981512,Tetragonal,87,I4/m,0.5119999999999998,True,False
mp-16317,Si5Pt12,"Pt, Si",2,0.07445867647058435,Tetragonal,87,I4/m,0.0,False,True
mp-1384340,SnO2,"O, Sn",2,0.06859096666666531,Tetragonal,87,I4/m,1.8491999999999997,True,False
mp-1070583,ErAu4,"Au, Er",2,0.0,Tetragonal,87,I4/m,0.0,False,True
mp-764417,Fe14O15,"Fe, O",2,0.05889862086206854,Tetragonal,87,I4/m,0.6050999999999993,True,False
mp-1400906,CoO2,"Co, O",2,0.0,Tetragonal,87,I4/m,0.5904000000000001,True,False
mp-12565,MnAu4,"Au, Mn",2,0.0,Tetragonal,87,I4/m,0.0,False,True
mp-1191593,Cs3Te22,"Cs, Te",2,0.0,Tetragonal,87,I4/m,0.0,False,True
mp-30354,ScAg4,"Ag, Sc",2,0.0,Tetragonal,87,I4/m,0.0,False,True
mp-2371,Ga2Te5,"Ga, Te",2,0.0,Tetragonal,87,I4/m,0.9609000000000001,False,False
mp-11415,Sm9Ga4,"Ga, Sm",2,0.004072289423074693,Tetragonal,87,I4/m,0.0,False,True
mp-27743,BiF5,"Bi, F",2,0.0,Tetragonal,87,I4/m,1.8137999999999999,False,False
mp-1024969,NpF5,"F, Np",2,0.08587447347220944,Tetragonal,87,I4/m,0.0,True,True
mp-1211590,La5Mg41,"La, Mg",2,0.0055615945652176535,Tetragonal,87,I4/m,0.0,True,True
mp-1068446,ScAu4,"Au, Sc",2,0.0,Tetragonal,87,I4/m,0.0,False,True
mp-1400963,TiO2,"O, Ti",2,0.06530322750000117,Tetragonal,87,I4/m,2.5027999999999997,True,False
mp-11507,Ni4Mo,"Mo, Ni",2,0.007206371000000544,Tetragonal,87,I4/m,0.0,False,True
mp-1101022,TiO2,"O, Ti",2,0.04738792250000046,Tetragonal,87,I4/m,1.9968,True,False
mp-30814,Zr9Ni11,"Ni, Zr",2,0.07746416724999872,Tetragonal,87,I4/m,0.0,False,True
mp-1193856,Zr21S8,"S, Zr",2,0.09646030887930834,Tetragonal,87,I4/m,0.0,False,True
mp-30859,Zr9Pt11,"Pt, Zr",2,0.0833629593333356,Tetragonal,87,I4/m,0.0,False,True
mp-8312,Ta5As4,"As, Ta",2,0.0,Tetragonal,87,I4/m,0.0,False,True
mp-542239,Cs5Hg19,"Cs, Hg",2,0.0,Tetragonal,87,I4/m,0.0,False,True
mp-680586,Ce5Mg41,"Ce, Mg",2,0.011043109347825819,Tetragonal,87,I4/m,0.0,False,True
mp-568953,LuAg4,"Ag, Lu",2,0.0,Tetragonal,87,I4/m,0.0,False,True
mp-600054,SiO2,"O, Si",2,0.018295835989581732,Tetragonal,91,P4_122,5.6447,False,False
mp-27205,TlCl2,"Cl, Tl",2,0.0,Tetragonal,88,I4_1/a,2.2468,False,False
mp-1288,AgO,"Ag, O",2,0.04718041062499978,Tetragonal,88,I4_1/a,0.1826000000000001,False,False
mp-574266,MgGa,"Ga, Mg",2,0.0,Tetragonal,88,I4_1/a,0.0,False,True
mp-1498,Al21Pd8,"Al, Pd",2,0.0,Tetragonal,88,I4_1/a,0.0,False,True
mp-510,TaO2,"O, Ta",2,0.05548197587499715,Tetragonal,88,I4_1/a,0.4284000000000008,True,False
mp-582201,Ge8Pd21,"Ge, Pd",2,0.0,Tetragonal,88,I4_1/a,0.0,False,True
mp-1982,Al21Pt8,"Al, Pt",2,0.0,Tetragonal,88,I4_1/a,0.0,False,True
mp-567431,ThCl4,"Cl, Th",2,0.0,Tetragonal,88,I4_1/a,3.6452,False,False
mp-9918,LiGe,"Ge, Li",2,0.0,Tetragonal,88,I4_1/a,0.0,False,True
mp-821,NbO2,"Nb, O",2,0.002364360416665434,Tetragonal,88,I4_1/a,0.42600000000000016,False,False
mp-557057,NbO2,"Nb, O",2,0.0,Tetragonal,88,I4_1/a,0.2824,True,False
mp-581457,Rb15Hg16,"Hg, Rb",2,0.0,Tetragonal,88,I4_1/a,0.0,False,True
mp-795,LiSi,"Li, Si",2,0.012245563601190668,Tetragonal,88,I4_1/a,0.0,False,True
mp-570229,ThBr4,"Br, Th",2,0.0,Tetragonal,88,I4_1/a,2.8181,False,False
mp-1199451,B2S3,"B, S",2,0.0,Tetragonal,88,I4_1/a,2.5061,False,False
mp-1095521,KF5,"F, K",2,0.06750237375000001,Tetragonal,88,I4_1/a,0.0,False,True
mp-541103,MnF4,"F, Mn",2,0.0,Tetragonal,88,I4_1/a,0.6701999999999999,False,False
mp-582549,In2Te5,"In, Te",2,0.001190307142856284,Monoclinic,9,Cc,0.8878000000000004,False,False
mp-2804,LaP2,"La, P",2,0.0,Monoclinic,9,Cc,0.5563000000000002,False,False
mp-1228524,Al2Te3,"Al, Te",2,0.014948752749997851,Monoclinic,9,Cc,1.3615000000000004,True,False
mp-608321,Eu3As4,"As, Eu",2,0.008599470000000053,Monoclinic,9,Cc,0.0,True,True
mp-29500,Ge7F16,"F, Ge",2,0.0002110073913055288,Monoclinic,9,Cc,4.3788,False,False
mp-752600,VF5,"F, V",2,0.057544122083332816,Monoclinic,9,Cc,2.7544000000000004,True,False
mp-555147,SiO2,"O, Si",2,0.08140921222222275,Monoclinic,9,Cc,5.3545,True,False
mp-652621,In5Br7,"Br, In",2,0.006891360624999621,Monoclinic,9,Cc,2.1487,False,False
mp-1105127,MnP4,"Mn, P",2,0.001444687666666944,Monoclinic,9,Cc,0.5335999999999999,False,False
mp-752616,Mn3F8,"F, Mn",2,0.07823317363636217,Monoclinic,9,Cc,0.5239,True,False
mp-32616,Ga2S3,"Ga, S",2,0.00046213099999903307,Monoclinic,9,Cc,1.8097000000000003,True,False
mp-1224485,Hf2Se3,"Hf, Se",2,0.0,Monoclinic,9,Cc,0.0,True,True
mp-640556,SiO2,"O, Si",2,0.006745714583333395,Monoclinic,9,Cc,5.4721,False,False
mp-1340,Ga2Se3,"Ga, Se",2,0.0,Monoclinic,9,Cc,1.0435999999999999,False,False
mp-608072,SrIn,"In, Sr",2,0.0,Monoclinic,9,Cc,0.0,True,True
mp-1191893,CeP2,"Ce, P",2,0.04123089333333496,Monoclinic,9,Cc,0.0,False,True
mp-757128,VF5,"F, V",2,0.04410467541666652,Monoclinic,9,Cc,3.2622999999999998,True,False
mp-714911,V3O5,"O, V",2,0.010327505781251745,Monoclinic,9,Cc,1.0613999999999995,True,False
mp-660594,PtF4,"F, Pt",2,0.034707637000000346,Monoclinic,9,Cc,1.2151999999999998,True,False
mp-1228491,Al2S3,"Al, S",2,0.0,Monoclinic,9,Cc,3.0435000000000003,True,False
mp-673633,In2S3,"In, S",2,0.04734106600000132,Monoclinic,9,Cc,1.4722999999999997,True,False
mp-680731,Tl2Te3,"Te, Tl",2,0.03270461100000244,Monoclinic,9,Cc,0.6477000000000004,False,False
mp-29815,LaAs2,"As, La",2,0.0006786937500002921,Monoclinic,9,Cc,0.5974000000000004,False,False
mp-38970,Ga2Te3,"Ga, Te",2,0.0,Monoclinic,9,Cc,0.6375000000000002,True,False
mp-539,Ga2S3,"Ga, S",2,0.0,Monoclinic,9,Cc,1.7106,False,False
mp-555235,SiO2,"O, Si",2,0.0069087930555564725,Monoclinic,9,Cc,5.6842999999999995,False,False
mp-11674,Al2Se3,"Al, Se",2,0.0,Monoclinic,9,Cc,1.8004000000000002,False,False
mp-663300,PdF4,"F, Pd",2,0.026732312000000036,Monoclinic,9,Cc,0.6028,True,False
mp-1101086,AgSe5,"Ag, Se",2,0.0,Monoclinic,9,Cc,0.0,False,True
mp-530081,Mo15N16,"Mo, N",2,0.0,Monoclinic,9,Cc,0.0,True,True
mp-684704,H2O,"H, O",2,0.08364084000000016,Monoclinic,9,Cc,4.7589,True,False
mp-1216920,US2,"S, U",2,0.04345118977778384,Tetragonal,97,I422,0.0,True,True
mp-471,CdAs2,"As, Cd",2,0.0,Tetragonal,98,I4_122,0.13319999999999999,False,False
mp-1378817,Mn5Si2,"Mn, Si",2,0.07259037857142836,Tetragonal,96,P4_32_12,0.0,True,True
mp-2739,TeO2,"O, Te",2,0.0005973924999977953,Tetragonal,96,P4_32_12,2.8307,False,False
mp-1190176,Ba3Sn2,"Ba, Sn",2,0.0047372440000033045,Tetragonal,96,P4_32_12,0.37470000000000026,False,False
mp-618991,Cu2S,"Cu, S",2,0.019474473958332794,Tetragonal,96,P4_32_12,0.13030000000000008,False,False
mp-559872,SiO2,"O, Si",2,0.00940804222222269,Tetragonal,96,P4_32_12,5.610600000000001,False,False
mp-1413546,As2O5,"As, O",2,0.00010125999999921476,Tetragonal,96,P4_32_12,1.3654000000000002,True,False
mp-704718,Pt3I8,"I, Pt",2,0.003043923636361523,Tetragonal,96,P4_32_12,0.8003999999999998,True,False
mp-913,CdP2,"Cd, P",2,0.0,Tetragonal,96,P4_32_12,1.4556,False,False
mp-7029,SiO2,"O, Si",2,0.005306136388890437,Tetragonal,96,P4_32_12,5.7943999999999996,True,False
mp-11025,ZnP2,"P, Zn",2,0.0,Tetragonal,96,P4_32_12,1.5787,False,False
mp-1200749,Zr5Ge4,"Ge, Zr",2,0.0,Tetragonal,92,P4_12_12,0.0,False,True
mp-28320,Pt3I8,"I, Pt",2,0.0,Tetragonal,92,P4_12_12,0.6834000000000002,False,False
mp-555434,As2O5,"As, O",2,9.635821428410907e-05,Tetragonal,92,P4_12_12,1.6284999999999998,False,False
mp-680178,In5Br7,"Br, In",2,0.0060473880208333775,Tetragonal,92,P4_12_12,2.0042999999999997,False,False
mp-2782,ZnP2,"P, Zn",2,4.786666666589667e-06,Tetragonal,92,P4_12_12,1.4620000000000002,False,False
mp-7623,MgAs4,"As, Mg",2,0.0,Tetragonal,92,P4_12_12,0.8144,False,False
mp-542465,Pr5Si4,"Pr, Si",2,0.0016117374999975453,Tetragonal,92,P4_12_12,0.0,False,True
mp-505527,Ti5Si4,"Si, Ti",2,0.0,Tetragonal,92,P4_12_12,0.0,False,True
mp-778470,Mn2O3,"Mn, O",2,0.07885142162500003,Tetragonal,92,P4_12_12,0.0,True,True
mp-608655,Mn5Si2,"Mn, Si",2,0.07241013196428625,Tetragonal,92,P4_12_12,0.0,False,True
mp-557,TeO2,"O, Te",2,0.0004988908333318776,Tetragonal,92,P4_12_12,2.8043999999999993,False,False
mp-7812,GeO2,"Ge, O",2,0.09336300499999872,Tetragonal,92,P4_12_12,3.2779,False,False
mp-1102227,CO2,"C, O",2,0.0168115783333338,Tetragonal,92,P4_12_12,6.4314,False,False
mp-18345,La5Si4,"La, Si",2,0.0,Tetragonal,92,P4_12_12,0.0,False,True
mp-17216,Hf5Si4,"Hf, Si",2,0.007586177222226098,Tetragonal,92,P4_12_12,0.0,False,True
mp-696735,H2O,"H, O",2,0.006665027499999532,Tetragonal,92,P4_12_12,5.4898,False,False
mp-7457,SnF2,"F, Sn",2,0.005851616250000191,Tetragonal,92,P4_12_12,3.3819000000000004,False,False
mp-1196829,Ce5Si4,"Ce, Si",2,0.006339800416668595,Tetragonal,92,P4_12_12,0.0,False,True
mp-6945,SiO2,"O, Si",2,0.005370743055555849,Tetragonal,92,P4_12_12,5.503699999999999,False,False
mp-355,Nd5Si4,"Nd, Si",2,0.0,Tetragonal,92,P4_12_12,0.0,False,True
mp-28227,Ni11As8,"As, Ni",2,0.0,Tetragonal,92,P4_12_12,0.0,False,True
mp-561066,TlS,"S, Tl",2,0.028092917447914534,Tetragonal,92,P4_12_12,0.8102,False,False
mp-1196036,WI3,"I, W",2,0.04722941333333264,Tetragonal,92,P4_12_12,1.0734,False,False
mp-582134,Y3Ni2,"Ni, Y",2,0.0,Tetragonal,92,P4_12_12,0.0,False,True
mp-14587,ZnP4,"P, Zn",2,0.06342556091666651,Tetragonal,92,P4_12_12,0.9662999999999995,False,False
mp-1304,Zr5Si4,"Si, Zr",2,7.687833333491767e-05,Tetragonal,92,P4_12_12,0.0,False,True
mp-12112,CdP2,"Cd, P",2,7.420833334492727e-07,Tetragonal,92,P4_12_12,1.4562000000000004,False,False
mp-1222172,Mg3Au13,"Au, Mg",2,0.0,Tetragonal,99,P4mm,0.0,True,True
mp-1217111,Ti5Al11,"Al, Ti",2,0.015042714999999873,Tetragonal,99,P4mm,0.0,True,True
mp-1106121,Fe9Se8,"Fe, Se",2,0.05774029235294176,Tetragonal,99,P4mm,0.0,True,True
mp-1225676,Cu3Te2,"Cu, Te",2,0.02125787800000012,Tetragonal,99,P4mm,0.0,True,True
mp-680639,Cu3Pd,"Cu, Pd",2,0.0014114542857139867,Tetragonal,99,P4mm,0.0,False,True