material_id,formula,elements,num_elements,energy_above_hull,crystal_system,spacegroup_number,spacegroup_symbol,band_gap,theoretical,is_metal
mp-8732,Ta2Se,"Se, Ta",2,0.0,Tetragonal,129,P4/nmm,0.0,False,True
mp-569858,UBi2,"Bi, U",2,0.010453383333335786,Tetragonal,129,P4/nmm,0.0,False,True
mp-1018692,ErTe2,"Er, Te",2,0.06797701722222627,Tetragonal,129,P4/nmm,0.0,False,True
mp-2350391,PbS,"Pb, S",2,0.05909927749999966,Tetragonal,129,P4/nmm,1.7097,True,False
mp-20664,Mn2Sb,"Mn, Sb",2,0.0,Tetragonal,129,P4/nmm,0.0,False,True
mp-610522,Mn2As,"As, Mn",2,0.0160889540229876,Tetragonal,129,P4/nmm,0.0,False,True
mp-1232237,ScSe2,"Sc, Se",2,0.07345180002604224,Tetragonal,129,P4/nmm,0.0,True,True
mp-640045,Ti8Bi9,"Bi, Ti",2,0.0,Tetragonal,129,P4/nmm,0.0,False,True
mp-1018751,LaS2,"La, S",2,0.09657405666666818,Tetragonal,129,P4/nmm,0.0,False,True
mp-1007758,HfCd,"Cd, Hf",2,0.0,Tetragonal,129,P4/nmm,0.0,False,True
mp-1018665,CeSe2,"Ce, Se",2,0.0,Tetragonal,129,P4/nmm,0.0,False,True
mp-999133,TaPd,"Pd, Ta",2,0.0,Tetragonal,129,P4/nmm,0.0,False,True
mp-567586,Nd17Au36,"Au, Nd",2,0.0,Tetragonal,129,P4/nmm,0.0,False,True
mp-1074652,Mg2Si,"Mg, Si",2,0.08808295499999952,Tetragonal,129,P4/nmm,0.0,True,True
mp-1072474,TmSe2,"Se, Tm",2,0.08371162598957937,Tetragonal,129,P4/nmm,0.0,False,True
mp-2707,USb2,"Sb, U",2,0.0,Tetragonal,129,P4/nmm,0.0,False,True
mp-1232271,PmS2,"Pm, S",2,0.07275866916666729,Tetragonal,129,P4/nmm,0.0,True,True
mp-1018954,PuSe2,"Pu, Se",2,0.0,Tetragonal,129,P4/nmm,0.0,False,True
mp-1825,Cu2Sb,"Cu, Sb",2,0.03437157666666657,Tetragonal,129,P4/nmm,0.0,False,True
mp-1019091,LaSe2,"La, Se",2,0.03965901499999802,Tetragonal,129,P4/nmm,0.0,False,True
mp-1018675,DyS2,"Dy, S",2,0.07472762328125171,Tetragonal,129,P4/nmm,0.0,False,True
mp-1019324,TbTe2,"Tb, Te",2,0.0537732516666658,Tetragonal,129,P4/nmm,0.0,False,True
mp-11239,ZrAg,"Ag, Zr",2,0.0,Tetragonal,129,P4/nmm,0.0,False,True
mp-557835,TlF,"F, Tl",2,0.0030339337500002728,Tetragonal,129,P4/nmm,2.9859,False,False
mp-2097,SnO,"O, Sn",2,0.03974138374999825,Tetragonal,129,P4/nmm,0.4096000000000002,False,False
mp-1232897,CrN,"Cr, N",2,0.07692022500000029,Tetragonal,129,P4/nmm,0.0,True,True
mp-1018707,GdSe2,"Gd, Se",2,0.0,Tetragonal,129,P4/nmm,0.0,False,True
mp-7859,ZrS,"S, Zr",2,0.0,Tetragonal,129,P4/nmm,0.0,False,True
mp-1067475,TiNi,"Ni, Ti",2,0.07174623499999999,Tetragonal,129,P4/nmm,0.0,True,True
mp-19867,NpAs2,"As, Np",2,0.0,Tetragonal,129,P4/nmm,0.0,False,True
mp-1076964,GdTe2,"Gd, Te",2,0.0,Tetragonal,129,P4/nmm,0.0,False,True
mp-571033,NiSe,"Ni, Se",2,0.09245323166666708,Tetragonal,129,P4/nmm,0.0,True,True
mp-1018940,PrSe2,"Pr, Se",2,0.03246167916666565,Tetragonal,129,P4/nmm,0.0,False,True
mp-9978,ErSe2,"Er, Se",2,0.06731685390624875,Tetragonal,129,P4/nmm,0.0,False,True
mp-973750,LuTe2,"Lu, Te",2,0.09559990833333476,Tetragonal,129,P4/nmm,0.0,False,True
mp-1323,AlF3,"Al, F",2,0.013772237656250574,Tetragonal,129,P4/nmm,7.3085,False,False
mp-2078,TiCu,"Cu, Ti",2,0.0,Tetragonal,129,P4/nmm,0.0,False,True
mp-1007755,HfAu,"Au, Hf",2,0.0,Tetragonal,129,P4/nmm,0.0,False,True
mp-1232273,SmS2,"S, Sm",2,0.06936306333333153,Tetragonal,129,P4/nmm,0.0,True,True
mp-413,UP2,"P, U",2,0.04106346833332708,Tetragonal,129,P4/nmm,0.0,False,True
mp-7698,NdS2,"Nd, S",2,0.0776446158333357,Tetragonal,129,P4/nmm,0.0,False,True
mp-7097,ThAs2,"As, Th",2,0.0,Tetragonal,129,P4/nmm,0.0,False,True
mp-21273,FeTe,"Fe, Te",2,0.07645376875000132,Tetragonal,129,P4/nmm,0.0,False,True
mp-23313,InBi,"Bi, In",2,0.04432653499999617,Tetragonal,129,P4/nmm,0.0,False,True
mp-1017985,TiAg,"Ag, Ti",2,0.0,Tetragonal,129,P4/nmm,0.0,False,True
mp-1019253,SmSe2,"Se, Sm",2,0.029101980197914656,Tetragonal,129,P4/nmm,0.0,False,True
mp-1273331,VO,"O, V",2,0.06256706520833255,Tetragonal,129,P4/nmm,0.8225000000000007,True,False
mp-27757,Be4B,"B, Be",2,0.0,Tetragonal,129,P4/nmm,0.0,False,True
mp-13156,HfAg,"Ag, Hf",2,0.0,Tetragonal,129,P4/nmm,0.0,False,True
mp-19443,WO3,"O, W",2,0.005913767812499415,Tetragonal,129,P4/nmm,0.8578,False,False
mp-580226,CuSe,"Cu, Se",2,0.053843252500000105,Tetragonal,129,P4/nmm,0.0,True,True
mp-2550,NdTe2,"Nd, Te",2,0.0004998366666697507,Tetragonal,129,P4/nmm,0.0,False,True
mp-8936,SnSe,"Se, Sn",2,0.08763922374999922,Tetragonal,129,P4/nmm,0.8559,False,False
mp-1017540,ZrCd,"Cd, Zr",2,0.0,Tetragonal,129,P4/nmm,0.0,False,True
mp-571335,ThBi2,"Bi, Th",2,0.0,Tetragonal,129,P4/nmm,0.0,False,True
mp-1025077,TbSe2,"Se, Tb",2,0.0006671505967901226,Tetragonal,129,P4/nmm,0.0,True,True
mp-1019093,PaP2,"P, Pa",2,0.0,Tetragonal,129,P4/nmm,0.0,False,True
mp-1019107,PuTe2,"Pu, Te",2,0.0,Tetragonal,129,P4/nmm,0.0,False,True
mp-639690,PuS2,"Pu, S",2,0.0,Tetragonal,129,P4/nmm,0.0,False,True
mp-22917,CuBr,"Br, Cu",2,0.0018194724999993639,Tetragonal,129,P4/nmm,0.9962,False,False
mp-1329,LaTe2,"La, Te",2,0.0029458170833249753,Tetragonal,129,P4/nmm,0.0,False,True
mp-1018683,DySe2,"Dy, Se",2,0.03210963449653548,Tetragonal,129,P4/nmm,0.0,False,True
mp-1071777,SrAl2,"Al, Sr",2,0.014346743333332412,Tetragonal,129,P4/nmm,0.0,True,True
mp-1232214,YSe2,"Se, Y",2,0.04184907307291752,Tetragonal,129,P4/nmm,0.0,True,True
mp-1232117,EuS2,"Eu, S",2,0.0680323499999993,Tetragonal,129,P4/nmm,0.0,True,True
mp-1018727,HoS2,"Ho, S",2,0.08784652147569716,Tetragonal,129,P4/nmm,0.0,False,True
mp-7135,TbS2,"S, Tb",2,0.07525986583333122,Tetragonal,129,P4/nmm,0.0,False,True
mp-30500,TiCd,"Cd, Ti",2,0.0,Tetragonal,129,P4/nmm,0.0,False,True
mp-1077482,TiH2,"H, Ti",2,0.08593720999999999,Tetragonal,129,P4/nmm,0.0,True,True
mp-7568,ThSb2,"Sb, Th",2,0.0,Tetragonal,129,P4/nmm,0.0,False,True
mp-20311,FeSe,"Fe, Se",2,0.0,Tetragonal,129,P4/nmm,0.0,False,True
mp-1232230,EuSe2,"Eu, Se",2,0.013628290312500013,Tetragonal,129,P4/nmm,0.0,True,True
mp-1147746,CoS,"Co, S",2,0.08453702791666728,Tetragonal,129,P4/nmm,0.0,True,True
mp-22863,CuI,"Cu, I",2,0.013425672499998598,Tetragonal,129,P4/nmm,1.5721999999999996,False,False
mp-21335,UTe2,"Te, U",2,0.05362889333325427,Tetragonal,129,P4/nmm,0.0,False,True
mp-558947,SiO2,"O, Si",2,0.009777177013887695,Tetragonal,129,P4/nmm,5.6495,True,False
mp-1018880,PaSb2,"Pa, Sb",2,0.0,Tetragonal,129,P4/nmm,0.0,False,True
mp-11106,PaAs2,"As, Pa",2,0.0,Tetragonal,129,P4/nmm,0.0,False,True
mp-975652,PrTe2,"Pr, Te",2,0.0,Tetragonal,129,P4/nmm,0.0,False,True
mp-1657,UAs2,"As, U",2,0.0,Tetragonal,129,P4/nmm,0.0,False,True
mp-1018687,ErS2,"Er, S",2,0.09353529508680936,Tetragonal,129,P4/nmm,0.0,False,True
mp-20426,Fe2As,"As, Fe",2,0.06716882833333404,Tetragonal,129,P4/nmm,0.0,False,True
mp-1077365,YTe2,"Te, Y",2,0.05074076305555586,Tetragonal,129,P4/nmm,0.0,False,True
mp-505531,FeS,"Fe, S",2,0.0,Tetragonal,129,P4/nmm,0.0,False,True
mp-1018717,HfSb2,"Hf, Sb",2,0.07354802000000404,Tetragonal,129,P4/nmm,0.0,False,True
mp-669594,Pr5Ga3,"Ga, Pr",2,0.0,Tetragonal,130,P4/ncc,0.0,False,True
mp-1199558,Sm5Ir3,"Ir, Sm",2,0.0,Tetragonal,130,P4/ncc,0.0,False,True
mp-1200226,Dy5Ir3,"Dy, Ir",2,0.0,Tetragonal,130,P4/ncc,0.0,False,True
mp-1178787,VO2,"O, V",2,0.08270646541665272,Tetragonal,130,P4/ncc,1.2334,False,False
mp-1205022,CsTe7,"Cs, Te",2,0.010499072812499843,Tetragonal,130,P4/ncc,0.11240000000000006,False,False
mp-1199235,La5Ir3,"Ir, La",2,0.0,Tetragonal,130,P4/ncc,0.0,False,True
mp-1198712,Y5Ir3,"Ir, Y",2,0.0,Tetragonal,130,P4/ncc,0.0,False,True
mp-21538,Ba5Ge3,"Ba, Ge",2,0.017004229062497878,Tetragonal,130,P4/ncc,0.0,False,True
mp-1197997,Ho5Ir3,"Ho, Ir",2,0.0,Tetragonal,130,P4/ncc,0.0,False,True
mp-650328,NbTe4,"Nb, Te",2,0.003534971916665519,Tetragonal,130,P4/ncc,0.0,True,True
mp-568220,NbTe4,"Nb, Te",2,0.0,Tetragonal,130,P4/ncc,0.0,True,True
mp-1201266,Tb5Ir3,"Ir, Tb",2,0.0,Tetragonal,130,P4/ncc,0.0,False,True
mp-30522,Nd5Ir3,"Ir, Nd",2,0.0,Tetragonal,130,P4/ncc,0.0,False,True
mp-672217,La5Ga3,"Ga, La",2,0.0,Tetragonal,130,P4/ncc,0.0,False,True
mp-669320,Ba5Si3,"Ba, Si",2,0.013945256250001314,Tetragonal,130,P4/ncc,0.0,False,True
mp-672256,Y5Ga3,"Ga, Y",2,0.01638631367187493,Tetragonal,130,P4/ncc,0.0,False,True
mp-1210280,NbSe4,"Nb, Se",2,0.024749203600002545,Tetragonal,130,P4/ncc,0.0,True,True
mp-202,TaTe4,"Ta, Te",2,0.0031510585000003033,Tetragonal,130,P4/ncc,0.0,False,True
mp-1205021,Pr5Ir3,"Ir, Pr",2,0.0,Tetragonal,130,P4/ncc,0.0,False,True
mp-680259,TaTe4,"Ta, Te",2,0.0,Tetragonal,130,P4/ncc,0.15850000000000009,False,False
mp-21658,Sm5Ga3,"Ga, Sm",2,0.00025652804687581465,Tetragonal,130,P4/ncc,0.0,False,True
mp-1201760,Er5Ir3,"Er, Ir",2,0.0,Tetragonal,130,P4/ncc,0.0,False,True
mp-1196886,Ho5Ga3,"Ga, Ho",2,0.01705309421874901,Tetragonal,130,P4/ncc,0.0,False,True
mp-1198195,Tm5Ir3,"Ir, Tm",2,0.0,Tetragonal,130,P4/ncc,0.0,False,True
mp-18773,WO3,"O, W",2,0.006001734687499649,Tetragonal,130,P4/ncc,1.6254,False,False
mp-649605,W25O73,"O, W",2,0.010814826313776393,Monoclinic,13,P2/c,0.0,False,True
mp-1197211,Sb3O8,"O, Sb",2,0.01701119626893899,Monoclinic,13,P2/c,0.0012999999999996348,False,False
mp-1042656,W3O8,"O, W",2,0.09062566931818239,Monoclinic,13,P2/c,1.8159,True,False
mp-1213423,Eu2As3,"As, Eu",2,0.0018298378499999046,Monoclinic,13,P2/c,0.0,True,True
mp-32625,MoCl4,"Cl, Mo",2,0.0037156269999982783,Monoclinic,13,P2/c,0.0,True,True
mp-569175,ZrCl4,"Cl, Zr",2,0.0,Monoclinic,13,P2/c,3.6058,False,False
mp-645339,Fe5C2,"C, Fe",2,0.06127567249999899,Monoclinic,13,P2/c,0.0,True,True
mp-570763,VCl4,"Cl, V",2,0.0201731659999993,Monoclinic,13,P2/c,0.0,True,True
mp-1205379,GeH4,"Ge, H",2,0.008005109999999593,Monoclinic,13,P2/c,5.7745,True,False
mp-27340,ReCl4,"Cl, Re",2,0.0207038765555545,Monoclinic,13,P2/c,0.0,False,True
mp-27701,Mo9O26,"Mo, O",2,0.0036677771785722513,Monoclinic,13,P2/c,0.7422,False,False
mp-831269,V2O5,"O, V",2,0.025970106530612824,Monoclinic,13,P2/c,2.0627,True,False
mp-1213665,Eu2Sb3,"Eu, Sb",2,0.0,Monoclinic,13,P2/c,0.0,True,True
mp-560190,Mo8O23,"Mo, O",2,0.0,Monoclinic,13,P2/c,0.9108,True,False
mp-571235,ZrI4,"I, Zr",2,0.0,Monoclinic,13,P2/c,2.0134000000000003,False,False
mp-759943,Al2O3,"Al, O",2,0.03513531687500038,Monoclinic,13,P2/c,4.069800000000001,True,False
mp-706630,B5H7,"B, H",2,0.0,Monoclinic,13,P2/c,3.3929,False,False
mp-28777,Mo9O25,"Mo, O",2,0.008220931544116183,Monoclinic,13,P2/c,0.0,False,True
mp-31070,As8S9,"As, S",2,0.002155271323530883,Monoclinic,13,P2/c,1.7164,False,False
mp-622497,V3O5,"O, V",2,0.011705655781252489,Monoclinic,13,P2/c,0.0,False,True
mp-29422,HfCl4,"Cl, Hf",2,0.0,Monoclinic,13,P2/c,4.1668,False,False
mp-2669,Mo8O23,"Mo, O",2,0.005999975887096554,Monoclinic,13,P2/c,0.33709999999999973,False,False
mp-31010,Ca2As3,"As, Ca",2,0.0034224209999997868,Monoclinic,13,P2/c,0.1687000000000003,False,False
mp-865511,VCl4,"Cl, V",2,0.05469629000000076,Monoclinic,13,P2/c,0.12079999999999999,True,False
mp-560155,SiO2,"O, Si",2,0.027114811666667293,Monoclinic,13,P2/c,5.7966,False,False
mp-1079127,Ti2H3,"H, Ti",2,0.0033549484999992885,Tetragonal,132,P4_2/mcm,0.0,True,True
mp-20652,PbF3,"F, Pb",2,0.0,Tetragonal,132,P4_2/mcm,1.9078,True,False
mp-600080,SiO2,"O, Si",2,0.022453718906250586,Tetragonal,131,P4_2/mmc,5.4798,False,False
mp-753682,FeO,"Fe, O",2,0.08710199499999938,Tetragonal,131,P4_2/mmc,0.0,True,True
mp-697179,ZrH,"H, Zr",2,0.0,Tetragonal,131,P4_2/mmc,0.0,False,True
mp-2803876,AgO,"Ag, O",2,0.0,Tetragonal,131,P4_2/mmc,0.0,True,True
mp-600002,SiO2,"O, Si",2,0.022233876388890295,Tetragonal,131,P4_2/mmc,5.4577,True,False
mp-554755,SiO2,"O, Si",2,0.017704982395832403,Tetragonal,131,P4_2/mmc,5.6152,False,False
mp-755073,CrO,"Cr, O",2,0.005067494166667075,Tetragonal,131,P4_2/mmc,0.0,True,True
mp-1214760,AuI2,"Au, I",2,0.0,Tetragonal,131,P4_2/mmc,0.0,True,True
mp-1692,CuO,"Cu, O",2,0.0,Tetragonal,131,P4_2/mmc,0.0,True,True
mp-1336,PdO,"O, Pd",2,0.0,Tetragonal,131,P4_2/mmc,0.0,False,True
mp-690760,TiH,"H, Ti",2,0.0,Tetragonal,131,P4_2/mmc,0.0,False,True
mp-288,PtS,"Pt, S",2,0.0,Tetragonal,131,P4_2/mmc,0.38480000000000025,False,False
mp-639480,SiO2,"O, Si",2,0.03600793333333385,Tetragonal,131,P4_2/mmc,5.6231,True,False
mp-22633,Pb3O4,"O, Pb",2,0.0,Tetragonal,135,P4_2/mbc,1.2818999999999998,False,False
mp-555556,SiO2,"O, Si",2,0.015909832013889513,Tetragonal,135,P4_2/mbc,5.598999999999999,True,False
mp-1208498,Ti3Zn22,"Ti, Zn",2,0.0,Tetragonal,135,P4_2/mbc,0.0,True,True
mp-726,SeO2,"O, Se",2,0.0,Tetragonal,135,P4_2/mbc,3.2874,False,False
mp-571383,PdSe,"Pd, Se",2,0.0008393247916664848,Tetragonal,135,P4_2/mbc,0.17830000000000013,False,False
mp-680580,Zn3As2,"As, Zn",2,0.0,Tetragonal,133,P4_2/nbc,0.16469999999999985,False,False
mp-555283,V3S,"S, V",2,0.0,Tetragonal,133,P4_2/nbc,0.0,False,True
mp-567846,Ta3P,"P, Ta",2,0.00018703375000228561,Tetragonal,133,P4_2/nbc,0.0,False,True
mp-1201202,Cd3As2,"As, Cd",2,0.02029058631249958,Tetragonal,133,P4_2/nbc,0.15620000000000012,False,False
mp-559347,SiO2,"O, Si",2,0.01864310368055655,Tetragonal,133,P4_2/nbc,5.6325,True,False
mp-23192,HgI2,"Hg, I",2,0.0,Tetragonal,137,P4_2/nmc,1.3324,False,False
mp-1372,Cd3As2,"As, Cd",2,0.002004718875000311,Tetragonal,137,P4_2/nmc,0.0,False,True
mp-568742,HgI2,"Hg, I",2,0.000725390416666416,Tetragonal,137,P4_2/nmc,1.3751,False,False
mp-15700,Zn3As2,"As, Zn",2,0.004009980062500862,Tetragonal,137,P4_2/nmc,0.0,False,True
mp-1103625,Np2Se5,"Np, Se",2,0.0,Tetragonal,137,P4_2/nmc,0.0,False,True
mp-1018721,HfO2,"Hf, O",2,0.050883971666667804,Tetragonal,137,P4_2/nmc,4.667800000000001,False,False
mp-2071,Zn3P2,"P, Zn",2,0.0,Tetragonal,137,P4_2/nmc,0.3144,False,False
mp-2048,TlTe,"Te, Tl",2,0.0,Tetragonal,137,P4_2/nmc,0.12450000000000028,True,False
mp-1071032,GeS2,"Ge, S",2,0.055032651458334136,Tetragonal,137,P4_2/nmc,1.6051000000000002,False,False
mp-567279,ZnCl2,"Cl, Zn",2,0.0015964250000006786,Tetragonal,137,P4_2/nmc,3.8828000000000005,False,False
mp-2441,Cd3P2,"Cd, P",2,0.0,Tetragonal,137,P4_2/nmc,0.0018000000000002458,False,False
mp-28212,Nb4O5,"Nb, O",2,0.023646288611111288,Tetragonal,137,P4_2/nmc,0.0,False,True
mp-2574,ZrO2,"O, Zr",2,0.027125123333330947,Tetragonal,137,P4_2/nmc,3.8514,False,False
mp-776104,K2O,"K, O",2,0.05106739041666719,Tetragonal,137,P4_2/nmc,0.8928999999999999,True,False
mp-1201168,TbAu6,"Au, Tb",2,0.009017158341839693,Tetragonal,138,P4_2/ncm,0.0,False,True
mp-600109,SiO2,"O, Si",2,0.024659574444443777,Tetragonal,138,P4_2/ncm,5.5931999999999995,True,False
mp-505366,AuBr,"Au, Br",2,0.0,Tetragonal,138,P4_2/ncm,1.6885,False,False
mp-1199277,DyAu6,"Au, Dy",2,0.007947047397955487,Tetragonal,138,P4_2/ncm,0.0,False,True
mp-27725,AuI,"Au, I",2,0.0,Tetragonal,138,P4_2/ncm,2.0942,False,False
mp-1199447,HoAu6,"Au, Ho",2,0.0075176050000038686,Tetragonal,138,P4_2/ncm,0.1695000000000002,False,False
mp-1120780,AuCl,"Au, Cl",2,0.010198831250001206,Tetragonal,138,P4_2/ncm,1.9497,True,False
mp-1091,SmAu6,"Au, Sm",2,0.0,Tetragonal,138,P4_2/ncm,0.0,False,True
mp-19177,CrO2,"Cr, O",2,0.0,Tetragonal,136,P4_2/mnm,0.0,False,True
mp-31181,Er3Al2,"Al, Er",2,0.01694660949999971,Tetragonal,136,P4_2/mnm,0.0,False,True
mp-864616,ICl2,"Cl, I",2,0.0,Tetragonal,136,P4_2/mnm,0.0,True,True
mp-1184273,EuBr2,"Br, Eu",2,0.034750040999995235,Tetragonal,136,P4_2/mnm,1.1673000000000002,True,False
mp-1183765,CrBr2,"Br, Cr",2,0.0855924672222228,Tetragonal,136,P4_2/mnm,0.0,True,True
mp-1192771,OsW2,"Os, W",2,0.029563740999996924,Tetragonal,136,P4_2/mnm,0.0,False,True
mp-470,GeO2,"Ge, O",2,0.0,Tetragonal,136,P4_2/mnm,1.2157,False,False
mp-571624,Dy3Al2,"Al, Dy",2,0.02173645649999756,Tetragonal,136,P4_2/mnm,0.0,False,True
mp-1093993,ZnO,"O, Zn",2,0.03289969250000091,Tetragonal,136,P4_2/mnm,0.7376,True,False
mp-1188977,Ga3Rh,"Ga, Rh",2,0.011919769810266878,Tetragonal,136,P4_2/mnm,0.0,False,True
mp-558928,KrF2,"F, Kr",2,0.010422669999999634,Tetragonal,136,P4_2/mnm,2.7303,False,False
mp-1193531,Ta2Al,"Al, Ta",2,0.0,Tetragonal,136,P4_2/mnm,0.0,False,True
mp-982635,Tm3Al2,"Al, Tm",2,0.0,Tetragonal,136,P4_2/mnm,0.0,False,True
mp-636368,Ga3Fe,"Fe, Ga",2,0.0,Tetragonal,136,P4_2/mnm,0.0,False,True
mp-570560,Na3Hg2,"Hg, Na",2,0.048197753000000176,Tetragonal,136,P4_2/mnm,0.0,False,True
mp-1194495,Ta2Au,"Au, Ta",2,0.0,Tetragonal,136,P4_2/mnm,0.0,False,True
mp-510536,MoO2,"Mo, O",2,0.0,Tetragonal,136,P4_2/mnm,0.0,False,True
mp-19372,WO2,"O, W",2,0.0,Tetragonal,136,P4_2/mnm,0.0,False,True
mp-1238787,NaO2,"Na, O",2,0.06479081333333259,Tetragonal,136,P4_2/mnm,0.0,True,True
mp-1195396,Nb4Ga5,"Ga, Nb",2,0.003169862222222264,Tetragonal,136,P4_2/mnm,0.0,False,True
mp-1183892,EuCl2,"Cl, Eu",2,0.04519460333333214,Tetragonal,136,P4_2/mnm,1.2108999999999996,True,False
mp-825,RuO2,"O, Ru",2,0.0,Tetragonal,136,P4_2/mnm,0.0,False,True
mp-863016,RbF2,"F, Rb",2,0.05161430500000064,Tetragonal,136,P4_2/mnm,1.3362999999999996,True,False
mp-864647,Hf2N,"Hf, N",2,0.0,Tetragonal,136,P4_2/mnm,0.0,True,True
mp-570844,Ga3Os,"Ga, Os",2,0.0,Tetragonal,136,P4_2/mnm,0.6769999999999996,False,False
mp-867134,SmCl2,"Cl, Sm",2,0.0,Tetragonal,136,P4_2/mnm,0.0,True,True
mp-22236,In3Co,"Co, In",2,0.0,Tetragonal,136,P4_2/mnm,0.0,False,True
mp-1249,MgF2,"F, Mg",2,0.0,Tetragonal,136,P4_2/mnm,6.824,False,False
mp-13470,Zr3Al2,"Al, Zr",2,0.03617644129999675,Tetragonal,136,P4_2/mnm,0.0,False,True
mp-20559,Ga3Co,"Co, Ga",2,0.0,Tetragonal,136,P4_2/mnm,0.0,False,True
mp-630976,In3Ir,"In, Ir",2,0.004296428125002194,Tetragonal,136,P4_2/mnm,0.0,False,True
mp-1077716,PtO2,"O, Pt",2,0.040443675000002344,Tetragonal,136,P4_2/mnm,0.0,False,True
mp-863657,PmCl2,"Cl, Pm",2,0.0,Tetragonal,136,P4_2/mnm,0.0,True,True
mp-556911,FeF2,"F, Fe",2,0.0,Tetragonal,136,P4_2/mnm,1.6921,False,False
mp-2533,NbO2,"Nb, O",2,0.047459152916665914,Tetragonal,136,P4_2/mnm,0.0,False,True
mp-559798,NiF2,"F, Ni",2,0.0,Tetragonal,136,P4_2/mnm,4.9116,False,False
mp-555934,VF2,"F, V",2,0.0,Tetragonal,136,P4_2/mnm,0.0,False,True
mp-978985,SnBr2,"Br, Sn",2,0.04046539999999865,Tetragonal,136,P4_2/mnm,1.6560000000000001,True,False
mp-2657,TiO2,"O, Ti",2,0.009526375000000087,Tetragonal,136,P4_2/mnm,1.7809999999999997,False,False
mp-2723,IrO2,"Ir, O",2,0.0,Tetragonal,136,P4_2/mnm,0.0,False,True
mp-7507,Sr3Li2,"Li, Sr",2,0.005140342409089671,Tetragonal,136,P4_2/mnm,0.0,False,True
mp-1189634,Ga3Ir,"Ga, Ir",2,0.022756848625000714,Tetragonal,136,P4_2/mnm,0.0,False,True
mp-862868,PbBr2,"Br, Pb",2,0.010890884166665504,Tetragonal,136,P4_2/mnm,2.5745999999999998,True,False
mp-996,OsO2,"O, Os",2,0.0,Tetragonal,136,P4_2/mnm,0.0,False,True
mp-571166,CaBr2,"Br, Ca",2,0.0017474066666665067,Tetragonal,136,P4_2/mnm,4.4482,False,False
mp-1106135,Ho3Al2,"Al, Ho",2,0.01853226875000047,Tetragonal,136,P4_2/mnm,0.0,False,True
mp-8282,Ti2N,"N, Ti",2,0.0,Tetragonal,136,P4_2/mnm,0.0,False,True
mp-1106087,Ce3Ga2,"Ce, Ga",2,0.017467407499999865,Tetragonal,136,P4_2/mnm,0.0,False,True
mp-1193848,Zr2Re,"Re, Zr",2,0.0844003301333327,Tetragonal,136,P4_2/mnm,0.0,False,True
mp-775909,ZrO2,"O, Zr",2,0.06265508166666578,Tetragonal,136,P4_2/mnm,3.1299,True,False
mp-1184879,IBr2,"Br, I",2,0.0,Tetragonal,136,P4_2/mnm,0.0,True,True
mp-1188283,V8N,"N, V",2,0.0,Tetragonal,136,P4_2/mnm,0.0,False,True
mp-18614,In3Rh,"In, Rh",2,0.0,Tetragonal,136,P4_2/mnm,0.0,False,True
mp-23710,MgH2,"H, Mg",2,0.0,Tetragonal,136,P4_2/mnm,3.7097,False,False
mp-20725,PbO2,"O, Pb",2,0.0,Tetragonal,136,P4_2/mnm,0.0,False,True
mp-18167,Ca3Cd2,"Ca, Cd",2,0.0,Tetragonal,136,P4_2/mnm,0.0,True,True
mp-867500,PuI2,"I, Pu",2,0.017157245694445322,Tetragonal,136,P4_2/mnm,0.0,True,True
mp-776532,HfO2,"Hf, O",2,0.036980001666666595,Tetragonal,136,P4_2/mnm,3.9024999999999994,True,False
mp-1187158,SrBr2,"Br, Sr",2,0.03054106533333112,Tetragonal,136,P4_2/mnm,4.386,True,False
mp-1192954,Nb2Pt,"Nb, Pt",2,0.0,Tetragonal,136,P4_2/mnm,0.0,False,True
mp-976802,KF2,"F, K",2,0.0,Tetragonal,136,P4_2/mnm,1.4455999999999998,True,False
mp-725,RhO2,"O, Rh",2,0.0,Tetragonal,136,P4_2/mnm,0.0,False,True
mp-867358,PuCl2,"Cl, Pu",2,0.0,Tetragonal,136,P4_2/mnm,0.0,True,True
mp-18427,Nb2Al,"Al, Nb",2,0.0,Tetragonal,136,P4_2/mnm,0.0,False,True
mp-974603,HgF2,"F, Hg",2,0.05915709499999977,Tetragonal,136,P4_2/mnm,0.3962999999999999,True,False
mp-856,SnO2,"O, Sn",2,0.0,Tetragonal,136,P4_2/mnm,0.6519000000000004,False,False
mp-862565,ScBr2,"Br, Sc",2,0.0,Tetragonal,136,P4_2/mnm,0.0,True,True