material_id,formula,elements,num_elements,energy_above_hull,crystal_system,spacegroup_number,spacegroup_symbol,band_gap,theoretical,is_metal
mp-1222413,LiB3,"B, Li",2,0.0,Tetragonal,127,P4/mbm,0.09189999999999987,True,False
mp-1078666,GaPt3,"Ga, Pt",2,0.014097253750001926,Tetragonal,127,P4/mbm,0.0,False,True
mp-669913,Sr2Pb3,"Pb, Sr",2,0.00764726599999932,Tetragonal,127,P4/mbm,0.0,False,True
mp-11393,Nb3Ga2,"Ga, Nb",2,0.0,Tetragonal,127,P4/mbm,0.0,False,True
mp-314,Th3Ge2,"Ge, Th",2,0.0,Tetragonal,127,P4/mbm,0.0,False,True
mp-1974,CeB4,"B, Ce",2,0.0,Tetragonal,127,P4/mbm,0.0,False,True
mp-7924,Li2Sn5,"Li, Sn",2,0.0046469228571428545,Tetragonal,127,P4/mbm,0.0,False,True
mp-571495,LuB4,"B, Lu",2,0.0,Tetragonal,127,P4/mbm,0.0,False,True
mp-1105563,GdB4,"B, Gd",2,0.0,Tetragonal,127,P4/mbm,0.0,False,True
mp-2719,DyB4,"B, Dy",2,0.0,Tetragonal,127,P4/mbm,0.0,False,True
mp-30670,Th3Ga2,"Ga, Th",2,0.02859162850000274,Tetragonal,127,P4/mbm,0.0,False,True
mp-13415,Ta3B2,"B, Ta",2,0.0,Tetragonal,127,P4/mbm,0.0,False,True
mp-619,UB4,"B, U",2,0.0,Tetragonal,127,P4/mbm,0.0,False,True
mp-542573,ThB4,"B, Th",2,0.0,Tetragonal,127,P4/mbm,0.0,False,True
mp-637,YB4,"B, Y",2,0.0,Tetragonal,127,P4/mbm,0.0,False,True
mp-1239172,Mo5O14,"Mo, O",2,0.019535558721804236,Tetragonal,127,P4/mbm,0.0,True,True
mp-555026,AlF3,"Al, F",2,0.015193115750000707,Tetragonal,127,P4/mbm,7.4176,False,False
mp-1271121,CoF3,"Co, F",2,0.010794163124999478,Tetragonal,127,P4/mbm,1.6382,True,False
mp-2378,Th3Al2,"Al, Th",2,0.05601219099999355,Tetragonal,127,P4/mbm,0.0,False,True
mp-1207024,Zr3Si2,"Si, Zr",2,0.0,Tetragonal,127,P4/mbm,0.0,True,True
mp-7283,LaB4,"B, La",2,0.0,Tetragonal,127,P4/mbm,0.0,False,True
mp-759525,MnF3,"F, Mn",2,0.027228006999998833,Tetragonal,127,P4/mbm,0.0,True,True
mp-2847,ErB4,"B, Er",2,0.0,Tetragonal,127,P4/mbm,0.0,False,True
mp-1985644,Gd3Ga2,"Ga, Gd",2,0.0,Tetragonal,127,P4/mbm,0.0,True,True
mp-22050,Hf2In5,"Hf, In",2,0.0,Tetragonal,127,P4/mbm,0.0,False,True
mp-16756,Ta3Ga2,"Ga, Ta",2,0.0,Tetragonal,127,P4/mbm,0.0,False,True
mp-569281,HoB4,"B, Ho",2,0.0,Tetragonal,127,P4/mbm,0.0,False,True
mp-10162,La3Si2,"La, Si",2,0.003003086900001506,Tetragonal,127,P4/mbm,0.0,False,True
mp-1188425,NpB4,"B, Np",2,0.0,Tetragonal,127,P4/mbm,0.0,False,True
mp-1079146,Th3Si2,"Si, Th",2,0.0,Tetragonal,127,P4/mbm,0.0,False,True
mp-20689,Nb3B2,"B, Nb",2,0.0,Tetragonal,127,P4/mbm,0.0,False,True
mp-754812,Al2O3,"Al, O",2,0.08488599199999936,Monoclinic,12,C2/m,4.205500000000001,True,False
mp-568404,Li9Al4,"Al, Li",2,0.0,Monoclinic,12,C2/m,0.0,False,True
mp-542634,Ta2Te3,"Ta, Te",2,0.0,Monoclinic,12,C2/m,0.0,False,True
mp-1191483,Nb7As4,"As, Nb",2,0.004772799886362478,Monoclinic,12,C2/m,0.0,False,True
mp-753593,Ti10O13,"O, Ti",2,0.04458020173913013,Monoclinic,12,C2/m,0.0,True,True
mp-766454,TiO2,"O, Ti",2,0.045939138888888564,Monoclinic,12,C2/m,1.9292000000000002,True,False
mp-21405,InSe,"In, Se",2,0.03120042375000054,Monoclinic,12,C2/m,1.0804000000000005,False,False
mp-558336,Ho2O3,"Ho, O",2,0.031686189583336244,Monoclinic,12,C2/m,4.0575,False,False
mp-568746,Bi2Pd,"Bi, Pd",2,0.0,Monoclinic,12,C2/m,0.0,False,True
mp-11329,P2W,"P, W",2,0.023283316666667275,Monoclinic,12,C2/m,0.0,False,True
mp-1967,TaTe2,"Ta, Te",2,0.0,Monoclinic,12,C2/m,0.0,False,True
mp-11690,Tc2P3,"P, Tc",2,0.0,Monoclinic,12,C2/m,0.0,False,True
mp-1077978,Ti3Se4,"Se, Ti",2,0.012063248571428709,Monoclinic,12,C2/m,0.0,False,True
mp-571060,In9Pt13,"In, Pt",2,0.049124047272719906,Monoclinic,12,C2/m,0.0,False,True
mp-1185956,MgSc2,"Mg, Sc",2,0.029343626666667788,Monoclinic,12,C2/m,0.0,True,True
mp-561197,TaF5,"F, Ta",2,0.0,Monoclinic,12,C2/m,5.5366,False,False
mp-30410,Mn2Au5,"Au, Mn",2,0.014431074999997406,Monoclinic,12,C2/m,0.0,False,True
mp-1220493,NdCo,"Co, Nd",2,0.0891310538636354,Monoclinic,12,C2/m,0.0,True,True
mp-1185912,MgIn2,"In, Mg",2,0.024073979629630315,Monoclinic,12,C2/m,0.0,True,True
mp-1038816,CeMg,"Ce, Mg",2,0.016450333333331457,Monoclinic,12,C2/m,0.0,True,True
mp-1235252,LiO8,"Li, O",2,0.009239624444445482,Monoclinic,12,C2/m,0.0,True,True
mp-1072744,Hf2Bi,"Bi, Hf",2,0.006848357222224877,Monoclinic,12,C2/m,0.0,True,True
mp-573,Ni3Se4,"Ni, Se",2,0.0459973921428567,Monoclinic,12,C2/m,0.0,False,True
mp-886,Ga2O3,"Ga, O",2,0.0,Monoclinic,12,C2/m,2.0077999999999996,False,False
mp-551470,Tl2O,"O, Tl",2,4.31333333352768e-05,Monoclinic,12,C2/m,0.8411999999999997,False,False
mp-21589,Ga9Ni13,"Ga, Ni",2,0.0,Monoclinic,12,C2/m,0.0,False,True
mp-1038767,MgCd,"Cd, Mg",2,0.03818579500000041,Monoclinic,12,C2/m,0.0,True,True
mp-1094168,LaMg2,"La, Mg",2,0.07886855916666713,Monoclinic,12,C2/m,0.0,True,True
mp-2793,AuSe,"Au, Se",2,0.0,Monoclinic,12,C2/m,0.2627999999999999,False,False
mp-1094776,Mg2Cd,"Cd, Mg",2,0.039833586944445054,Monoclinic,12,C2/m,0.0,True,True
mp-561149,Ce2O3,"Ce, O",2,0.041735419916669514,Monoclinic,12,C2/m,0.0,True,True
mp-1223890,In4Pb,"In, Pb",2,0.008507498000000169,Monoclinic,12,C2/m,0.0,True,True
mp-1191610,Zr7As4,"As, Zr",2,0.0,Monoclinic,12,C2/m,0.0,False,True
mp-1094317,Sr2Mg,"Mg, Sr",2,0.06160184333333296,Monoclinic,12,C2/m,0.0,True,True
mp-1094503,Mg2Zn,"Mg, Zn",2,0.058884221533333614,Monoclinic,12,C2/m,0.0,True,True
mp-998914,K2O,"K, O",2,0.04115010166666666,Monoclinic,12,C2/m,0.8801,True,False
mp-1205567,Y2Br3,"Br, Y",2,0.0,Monoclinic,12,C2/m,0.6648000000000001,True,False
mp-30999,CuCl2,"Cl, Cu",2,0.0,Monoclinic,12,C2/m,0.0,False,True
mp-571258,Er6I7,"Er, I",2,0.08276844089743651,Monoclinic,12,C2/m,0.0,False,True
mp-1236522,LiO8,"Li, O",2,0.07006267444444436,Monoclinic,12,C2/m,0.27270000000000005,True,False
mp-1061769,CrSe2,"Cr, Se",2,0.015383776666667792,Monoclinic,12,C2/m,0.0,False,True
mp-1221185,Na7Si51,"Na, Si",2,0.07103930895065247,Monoclinic,12,C2/m,0.0,True,True
mp-21237,CoGe,"Co, Ge",2,0.0,Monoclinic,12,C2/m,0.0,False,True
mp-1188069,Zr2Ni7,"Ni, Zr",2,0.0038042649999994183,Monoclinic,12,C2/m,0.0,False,True
mp-1595,Nb2O5,"Nb, O",2,0.007537548265307947,Monoclinic,12,C2/m,2.171,False,False
mp-1217739,Tb4Si7,"Si, Tb",2,0.009903245000000283,Monoclinic,12,C2/m,0.0,True,True
mp-1187021,SmMg5,"Mg, Sm",2,0.06818948166666505,Monoclinic,12,C2/m,0.0,True,True
mp-1287184,VO,"O, V",2,0.0268012489583338,Monoclinic,12,C2/m,1.9785000000000004,True,False
mp-31040,NbCl4,"Cl, Nb",2,0.0,Monoclinic,12,C2/m,1.0797,False,False
mp-556477,Lu2O3,"Lu, O",2,0.046827471500002105,Monoclinic,12,C2/m,4.2763,True,False
mp-715811,Fe3O4,"Fe, O",2,0.037436837500001374,Monoclinic,12,C2/m,0.03200000000000003,True,False
mp-13447,Zn13Rh,"Rh, Zn",2,0.0,Monoclinic,12,C2/m,0.0,False,True
mp-1094351,MgTi2,"Mg, Ti",2,0.07179546611110954,Monoclinic,12,C2/m,0.0,True,True
mp-2760,Nb6C5,"C, Nb",2,0.0,Monoclinic,12,C2/m,0.0,False,True
mp-2353328,ZrCl3,"Cl, Zr",2,0.05359978749999961,Monoclinic,12,C2/m,0.0679000000000003,True,False
mp-1039204,MgCd2,"Cd, Mg",2,0.05930486555555703,Monoclinic,12,C2/m,0.0,True,True
mp-7291,CrP2,"Cr, P",2,0.0014827816666667104,Monoclinic,12,C2/m,0.0,False,True
mp-1078829,Gd2Cl3,"Cl, Gd",2,0.0,Monoclinic,12,C2/m,0.1814,False,False
mp-975,SF6,"F, S",2,0.0,Monoclinic,12,C2/m,5.9124,False,False
mp-568758,BiBr,"Bi, Br",2,0.022198198749999953,Monoclinic,12,C2/m,0.7863999999999998,False,False
mp-1039304,CeMg2,"Ce, Mg",2,0.030245869444446072,Monoclinic,12,C2/m,0.0,True,True
mp-1094239,MgSn2,"Mg, Sn",2,0.07190916583333351,Monoclinic,12,C2/m,0.0,True,True
mp-641509,In9Ni13,"In, Ni",2,0.06179680954545219,Monoclinic,12,C2/m,0.0,False,True
mp-1183839,DyMg5,"Dy, Mg",2,0.053063103333333306,Monoclinic,12,C2/m,0.0,True,True
mp-754815,YBr3,"Br, Y",2,0.0,Monoclinic,12,C2/m,3.9764999999999997,True,False
mp-13494,Nd3Fe29,"Fe, Nd",2,0.04306654773437657,Monoclinic,12,C2/m,0.0,False,True
mp-1215598,Zr2Se3,"Se, Zr",2,0.0,Monoclinic,12,C2/m,0.0,True,True
mp-1213754,Cr5Te8,"Cr, Te",2,0.0,Monoclinic,12,C2/m,0.0,True,True
mp-27840,Cr3Se4,"Cr, Se",2,0.005111232380951236,Monoclinic,12,C2/m,0.0,False,True
mp-18687,NbF5,"F, Nb",2,0.0,Monoclinic,12,C2/m,4.5694,False,False
mp-2036706,TiCl3,"Cl, Ti",2,0.002268919166649397,Monoclinic,12,C2/m,0.009099999999999886,True,False
mp-1232782,CrN,"Cr, N",2,0.047570155000000724,Monoclinic,12,C2/m,0.0,True,True
mp-980949,WCl4,"Cl, W",2,0.0,Monoclinic,12,C2/m,0.2649999999999997,False,False
mp-568301,BiBr3,"Bi, Br",2,0.002342262499998693,Monoclinic,12,C2/m,2.8692,False,False
mp-1081,V3S4,"S, V",2,0.0,Monoclinic,12,C2/m,0.0,False,True
mp-1183089,Ac2Mg,"Ac, Mg",2,0.02017846416665714,Monoclinic,12,C2/m,0.0,True,True
mp-1198191,Ti45Se16,"Se, Ti",2,0.04770593393442635,Monoclinic,12,C2/m,0.0,False,True
mp-1221957,MgIn,"In, Mg",2,0.009199702777777485,Monoclinic,12,C2/m,0.0,True,True
mp-567207,SrIn4,"In, Sr",2,0.007084296222223063,Monoclinic,12,C2/m,0.0,False,True
mp-510554,Nb12O29,"Nb, O",2,0.0005293398780477077,Monoclinic,12,C2/m,0.0,False,True
mp-1186252,Nd2Mg,"Mg, Nd",2,0.030726312500000574,Monoclinic,12,C2/m,0.0,True,True
mp-1201852,Nb2O5,"Nb, O",2,0.005506140765309198,Monoclinic,12,C2/m,1.9717,False,False
mp-1185838,Mg5Pt,"Mg, Pt",2,0.09478724388888882,Monoclinic,12,C2/m,0.0,True,True
mp-11800,Co3Se4,"Co, Se",2,0.04577151499999843,Monoclinic,12,C2/m,0.0,False,True
mp-1078443,As2Se3,"As, Se",2,0.02732987150000099,Monoclinic,12,C2/m,0.6002999999999998,False,False
mp-973455,LiMg2,"Li, Mg",2,0.010646323333333818,Monoclinic,12,C2/m,0.0,True,True
mp-28879,Ca5P8,"Ca, P",2,0.0,Monoclinic,12,C2/m,1.1418000000000004,False,False
mp-1038896,MgBi2,"Bi, Mg",2,0.0721586866666657,Monoclinic,12,C2/m,0.0,True,True
mp-1094646,MgGa2,"Ga, Mg",2,0.09184321333333312,Monoclinic,12,C2/m,0.0,True,True
mp-18280,SiO2,"O, Si",2,0.015797593611111438,Monoclinic,12,C2/m,5.6998999999999995,False,False
mp-1185840,MgAg2,"Ag, Mg",2,0.017365857500000637,Monoclinic,12,C2/m,0.0,True,True
mp-29465,TaCl4,"Cl, Ta",2,0.02510799429999988,Monoclinic,12,C2/m,1.2245,False,False
mp-1185936,MgPb2,"Mg, Pb",2,0.03430386666667262,Monoclinic,12,C2/m,0.0,True,True
mp-6950,BaSb3,"Ba, Sb",2,0.0,Monoclinic,12,C2/m,0.0,False,True
mp-31019,Al45Cr7,"Al, Cr",2,0.0,Monoclinic,12,C2/m,0.0,False,True
mp-1078012,Cr3Te4,"Cr, Te",2,0.014827734285710825,Monoclinic,12,C2/m,0.0,False,True
mp-1272680,CoO2,"Co, O",2,0.014164345833335368,Monoclinic,12,C2/m,1.2544,True,False
mp-11697,TaSb2,"Sb, Ta",2,0.0,Monoclinic,12,C2/m,0.0,False,True
mp-22510,FeGe,"Fe, Ge",2,0.01982088333333465,Monoclinic,12,C2/m,0.0,False,True
mp-1077372,Zr2Cu,"Cu, Zr",2,0.04423778166666903,Monoclinic,12,C2/m,0.0,False,True
mp-567624,CrBr2,"Br, Cr",2,0.0772509488888895,Monoclinic,12,C2/m,0.0,False,True
mp-15325,BaAs3,"As, Ba",2,0.0,Monoclinic,12,C2/m,0.0,False,True
mp-676620,Li27As10,"As, Li",2,0.025484282483107634,Monoclinic,12,C2/m,0.0,True,True
mp-30464,Bi2Pd5,"Bi, Pd",2,0.0,Monoclinic,12,C2/m,0.0,False,True
mp-1219748,PtCl2,"Cl, Pt",2,0.04902293166666638,Monoclinic,12,C2/m,1.0514999999999999,True,False
mp-1078331,Sb2Te3,"Sb, Te",2,0.04034025200000402,Monoclinic,12,C2/m,0.0,False,True
mp-1220932,Na5Si51,"Na, Si",2,0.08834016254002464,Monoclinic,12,C2/m,0.0,True,True
mp-1218065,Ta6O,"O, Ta",2,0.02121873799999463,Monoclinic,12,C2/m,0.0,True,True
mp-1199998,SiO2,"O, Si",2,0.02080060684210494,Monoclinic,12,C2/m,5.5867,False,False
mp-1213182,Fe13Mo9,"Fe, Mo",2,0.0,Monoclinic,12,C2/m,0.0,True,True
mp-754698,NbO2,"Nb, O",2,0.05264522541666672,Monoclinic,12,C2/m,0.0,True,True
mp-680850,Ti8S3,"S, Ti",2,0.0075968916666653286,Monoclinic,12,C2/m,0.0,False,True
mp-23219,CuBr2,"Br, Cu",2,0.008433290000001037,Monoclinic,12,C2/m,0.0,False,True
mp-685047,V23Se40,"Se, V",2,0.032510379523809974,Monoclinic,12,C2/m,0.0,True,True
mp-1039397,Ca2Mg,"Ca, Mg",2,0.03518725416666624,Monoclinic,12,C2/m,0.0,True,True
mp-570219,InBr3,"Br, In",2,0.0,Monoclinic,12,C2/m,2.489,False,False
mp-27215,CrI2,"Cr, I",2,0.08539140185185357,Monoclinic,12,C2/m,0.25680000000000014,False,False
mp-541637,Er4I5,"Er, I",2,0.06874960870370384,Monoclinic,12,C2/m,0.0,False,True
mp-1178232,FeO,"Fe, O",2,0.012036055000001156,Monoclinic,12,C2/m,0.0,True,True
mp-1094132,Lu5Ga3,"Ga, Lu",2,0.0070113203645831845,Monoclinic,12,C2/m,0.0,True,True
mp-22700,V3Se4,"Se, V",2,0.0,Monoclinic,12,C2/m,0.0,False,True
mp-31467,Ga3Pd7,"Ga, Pd",2,0.0008468572499964466,Monoclinic,12,C2/m,0.0,False,True
mp-1205422,Hf2Co7,"Co, Hf",2,0.008048037727270696,Monoclinic,12,C2/m,0.0,False,True
mp-1094543,Mg2Sn,"Mg, Sn",2,0.09204162166666574,Monoclinic,12,C2/m,0.0,True,True
mp-667383,SiO2,"O, Si",2,0.008467482976188379,Monoclinic,12,C2/m,5.5162,True,False
mp-570562,Te3Pt2,"Pt, Te",2,0.004561141000003488,Monoclinic,12,C2/m,0.0,False,True
mp-662706,SiO2,"O, Si",2,0.014375648769842542,Monoclinic,12,C2/m,5.5366,True,False
mp-32679,Nb10C7,"C, Nb",2,0.03979726000000028,Monoclinic,12,C2/m,0.0,True,True
mp-1094531,Y2Mg,"Mg, Y",2,0.0543007950000014,Monoclinic,12,C2/m,0.0,True,True
mp-1080428,NbBr4,"Br, Nb",2,0.0,Monoclinic,12,C2/m,0.8728,False,False
mp-1224025,In3Sn,"In, Sn",2,0.03856394125000051,Monoclinic,12,C2/m,0.0,True,True
mp-684969,Sc2S3,"S, Sc",2,0.0036904870000000756,Monoclinic,12,C2/m,0.6353,True,False
mp-9548,GeAs,"As, Ge",2,0.0,Monoclinic,12,C2/m,0.5112999999999999,False,False
mp-542454,Mo2As3,"As, Mo",2,0.0,Monoclinic,12,C2/m,0.0,False,True
mp-31002,Rb2Te5,"Rb, Te",2,0.0,Monoclinic,12,C2/m,0.23650000000000038,False,False
mp-1094511,MgTi2,"Mg, Ti",2,0.09245129277777586,Monoclinic,12,C2/m,0.0,True,True
mp-2512,AsPd5,"As, Pd",2,0.0,Monoclinic,12,C2/m,0.0,False,True
mp-571256,MoCl5,"Cl, Mo",2,0.0001896538888885857,Monoclinic,12,C2/m,0.0,False,True
mp-27194,SnI2,"I, Sn",2,0.0,Monoclinic,12,C2/m,1.7061000000000002,False,False
mp-557691,La2O3,"La, O",2,0.02960378991666701,Monoclinic,12,C2/m,3.4110000000000005,True,False
mp-1094491,SrMg2,"Mg, Sr",2,0.09307885499999968,Monoclinic,12,C2/m,0.0,True,True
mp-1185854,MgAu2,"Au, Mg",2,0.022812794666666303,Monoclinic,12,C2/m,0.0,True,True
mp-1187012,Sm2Mg,"Mg, Sm",2,0.027000998333333026,Monoclinic,12,C2/m,0.0,True,True
mp-569318,PuNi4,"Ni, Pu",2,0.009270505999999124,Monoclinic,12,C2/m,0.0,False,True
mp-1228647,B3Ir2,"B, Ir",2,0.06085322616666744,Monoclinic,12,C2/m,0.0,True,True
mp-1745,Sm2O3,"O, Sm",2,0.013724095749999776,Monoclinic,12,C2/m,3.7443000000000004,False,False
mp-15669,Ti3Te4,"Te, Ti",2,0.0,Monoclinic,12,C2/m,0.0,False,True
mp-1248957,SiO2,"O, Si",2,0.01593247812499854,Monoclinic,12,C2/m,5.7415,True,False
mp-1077179,As2W,"As, W",2,0.015735597916663124,Monoclinic,12,C2/m,0.0,False,True
mp-1205858,Hf2Ni7,"Hf, Ni",2,0.021984021333331327,Monoclinic,12,C2/m,0.0,True,True
mp-17279,SiO2,"O, Si",2,0.020339974513889914,Monoclinic,12,C2/m,5.7151,False,False
mp-568388,BiI,"Bi, I",2,0.014072875600000145,Monoclinic,12,C2/m,0.8279000000000001,False,False
mp-29554,WBr5,"Br, W",2,0.011807493888891685,Monoclinic,12,C2/m,0.0,False,True
mp-1028,V3Te4,"Te, V",2,0.014480818857140143,Monoclinic,12,C2/m,0.0,False,True
mp-28916,Mn3As2,"As, Mn",2,0.05899554741379287,Monoclinic,12,C2/m,0.0,False,True
mp-542812,GaTe,"Ga, Te",2,0.0,Monoclinic,12,C2/m,1.0066000000000002,False,False
mp-25469,AlCl3,"Al, Cl",2,0.0,Monoclinic,12,C2/m,5.263,False,False
mp-556253,Tm2O3,"O, Tm",2,0.038599018583330036,Monoclinic,12,C2/m,4.1691,True,False
mp-680204,SiO2,"O, Si",2,0.013950562373739928,Monoclinic,12,C2/m,5.5710999999999995,False,False
mp-558748,Sc2O3,"O, Sc",2,0.06585842708333445,Monoclinic,12,C2/m,3.4806,True,False
mp-1079534,EuP3,"Eu, P",2,0.0,Monoclinic,12,C2/m,0.0,False,True
mp-1474,Re3P4,"P, Re",2,0.0,Monoclinic,12,C2/m,0.0,False,True
mp-31049,NdO2,"Nd, O",2,0.0,Monoclinic,12,C2/m,3.4112,False,False
mp-1181961,Cr5S8,"Cr, S",2,0.0,Monoclinic,12,C2/m,0.0,False,True
mp-567584,Hf2Te,"Hf, Te",2,0.016243516666669677,Monoclinic,12,C2/m,0.0,False,True
mp-30021,K5Sb4,"K, Sb",2,0.0,Monoclinic,12,C2/m,0.0,True,True
mp-1218055,Ta7S12,"S, Ta",2,0.0,Monoclinic,12,C2/m,0.0,True,True
mp-644514,MnO2,"Mn, O",2,0.0,Monoclinic,12,C2/m,0.5244999999999997,False,False
mp-30568,Zn13Co,"Co, Zn",2,0.0,Monoclinic,12,C2/m,0.0,False,True
mp-13412,Y3Fe29,"Fe, Y",2,0.021000839687500772,Monoclinic,12,C2/m,0.0,True,True
mp-1182123,BaSb2,"Ba, Sb",2,0.0698373077777763,Monoclinic,12,C2/m,0.0,True,True
mp-1213756,Cr7Te8,"Cr, Te",2,0.07374281066666377,Monoclinic,12,C2/m,0.0,True,True
mp-1183959,Eu2Mg,"Eu, Mg",2,0.04131180041666216,Monoclinic,12,C2/m,0.0,True,True
mp-556480,Ti3O5,"O, Ti",2,0.014360412031249936,Monoclinic,12,C2/m,0.0,False,True
mp-29831,TaCl5,"Cl, Ta",2,0.0,Monoclinic,12,C2/m,2.8236999999999997,False,False
mp-1079776,Hf2Co7,"Co, Hf",2,0.008021956060606072,Monoclinic,12,C2/m,0.0,True,True
mp-1210567,MnZn13,"Mn, Zn",2,0.014834107142855046,Monoclinic,12,C2/m,0.0,True,True
mp-1094568,LiMg,"Li, Mg",2,0.02089319749999996,Monoclinic,12,C2/m,0.0,True,True
mp-1188909,EuP3,"Eu, P",2,0.003953272500002214,Monoclinic,12,C2/m,0.0,False,True
mp-1077791,ZrSc2,"Sc, Zr",2,0.003456281111109405,Monoclinic,12,C2/m,0.0,True,True
mp-1095508,Er5S7,"Er, S",2,0.0,Monoclinic,12,C2/m,0.0,False,True
mp-558351,SiO2,"O, Si",2,0.02017136722222368,Monoclinic,12,C2/m,5.626799999999999,False,False
mp-1207893,V5Se8,"Se, V",2,0.0,Monoclinic,12,C2/m,0.0,True,True
mp-754800,Ni3O4,"Ni, O",2,0.04120671857142888,Monoclinic,12,C2/m,0.0,True,True
mp-20174,Ni3Sn4,"Ni, Sn",2,0.0,Monoclinic,12,C2/m,0.0,False,True
mp-1095014,MgBi2,"Bi, Mg",2,0.06857208499999867,Monoclinic,12,C2/m,0.0,True,True
mp-1062030,TiS2,"S, Ti",2,0.0035409266666670547,Monoclinic,12,C2/m,0.05069999999999997,False,False
mp-642644,V2H,"H, V",2,5.510666666452835e-05,Monoclinic,12,C2/m,0.0,False,True
mp-10032,Ge2Os,"Ge, Os",2,0.0,Monoclinic,12,C2/m,0.0,False,True
mp-32727,Y3Se4,"Se, Y",2,0.00755061607142693,Monoclinic,12,C2/m,0.0,True,True
mp-27678,Y2Cl3,"Cl, Y",2,0.0,Monoclinic,12,C2/m,0.7606999999999999,False,False
mp-569410,PCl5,"Cl, P",2,0.0,Monoclinic,12,C2/m,1.7516,False,False
mp-1249637,SiO2,"O, Si",2,0.014413764107143123,Monoclinic,12,C2/m,5.6978,True,False
mp-1094352,Sr2Mg,"Mg, Sr",2,0.051499639999999625,Monoclinic,12,C2/m,0.0,True,True
mp-754806,Ni5O6,"Ni, O",2,0.04071467954545582,Monoclinic,12,C2/m,0.0,True,True
mp-1185946,MgPt2,"Mg, Pt",2,0.052846154166661385,Monoclinic,12,C2/m,0.0,True,True
mp-1039570,CaMg2,"Ca, Mg",2,0.06328275499999902,Monoclinic,12,C2/m,0.0,True,True
mp-2733,Al8Mo3,"Al, Mo",2,0.0,Monoclinic,12,C2/m,0.0,False,True
mp-559964,Ti6O11,"O, Ti",2,0.01363376352941259,Monoclinic,12,C2/m,0.0,False,True
mp-679962,Ti8Se3,"Se, Ti",2,0.00598514640442982,Monoclinic,12,C2/m,0.0,False,True
mp-1100908,VO2,"O, V",2,0.0670967316666502,Monoclinic,12,C2/m,0.6480000000000001,False,False
mp-573810,U2Te5,"Te, U",2,0.045638019999991286,Monoclinic,12,C2/m,0.0,False,True
mp-1186248,NbF5,"F, Nb",2,0.050584280833334105,Monoclinic,12,C2/m,4.399,True,False
mp-1094252,MgSn2,"Mg, Sn",2,0.0674716158333335,Monoclinic,12,C2/m,0.0,True,True
mp-1223990,In4Bi,"Bi, In",2,0.091227065,Monoclinic,12,C2/m,0.0,True,True
mp-30952,GaCl3,"Cl, Ga",2,0.0,Monoclinic,12,C2/m,4.1775,False,False
mp-1062114,SmHg2,"Hg, Sm",2,0.028166333333331295,Monoclinic,12,C2/m,0.0,True,True
mp-1095005,Ca2Mg,"Ca, Mg",2,0.02467014749999974,Monoclinic,12,C2/m,0.0,True,True
mp-638253,EuIn4,"Eu, In",2,0.03285641166666853,Monoclinic,12,C2/m,0.0,False,True
mp-1091391,BaTl4,"Ba, Tl",2,0.0,Monoclinic,12,C2/m,0.0,False,True
mp-755769,ZrO2,"O, Zr",2,0.09111170749999964,Monoclinic,12,C2/m,3.8274,True,False
mp-18922,Mn5O8,"Mn, O",2,0.013191634455127499,Monoclinic,12,C2/m,0.4426000000000001,False,False
mp-1186686,Pr2Mg,"Mg, Pr",2,0.03454148944444402,Monoclinic,12,C2/m,0.0,True,True
mp-1094901,MgCd2,"Cd, Mg",2,0.04704254055555768,Monoclinic,12,C2/m,0.0,True,True
mp-13363,SiPt3,"Pt, Si",2,0.045100567500000466,Monoclinic,12,C2/m,0.0,False,True
mp-1094635,Mg2Ga,"Ga, Mg",2,0.06223740277777745,Monoclinic,12,C2/m,0.0,True,True
mp-976262,LiMg,"Li, Mg",2,0.011205559166666657,Monoclinic,12,C2/m,0.0,True,True
mp-1102510,Ho5S7,"Ho, S",2,0.0,Monoclinic,12,C2/m,0.0,False,True
mp-1198423,Ho3Fe29,"Fe, Ho",2,0.03593010468750002,Monoclinic,12,C2/m,0.0,True,True
mp-1206891,RhI3,"I, Rh",2,0.0,Monoclinic,12,C2/m,1.0096000000000003,True,False
mp-27258,P3Au2,"Au, P",2,0.0,Monoclinic,12,C2/m,0.0,False,True
mp-555159,Pr2O3,"O, Pr",2,0.005527045583335166,Monoclinic,12,C2/m,3.5518000000000005,True,False