material_id,formula,elements,num_elements,energy_above_hull,crystal_system,spacegroup_number,spacegroup_symbol,band_gap,theoretical,is_metal
mp-28127,Na2S5,"Na, S",2,0.0,Orthorhombic,62,Pnma,1.7772000000000001,False,False
mp-1103633,Sm2Au,"Au, Sm",2,0.0,Orthorhombic,62,Pnma,0.0,False,True
mp-505759,Zr5Sb3,"Sb, Zr",2,0.0,Orthorhombic,62,Pnma,0.0,False,True
mp-1189442,Tm3Pt,"Pt, Tm",2,0.0027945481249957993,Orthorhombic,62,Pnma,0.0,False,True
mp-504783,Np2S3,"Np, S",2,0.0,Orthorhombic,62,Pnma,0.0,False,True
mp-1182,DySi,"Dy, Si",2,0.0,Orthorhombic,62,Pnma,0.0,False,True
mp-1198083,Gd5Ge4,"Gd, Ge",2,0.0,Orthorhombic,62,Pnma,0.0,False,True
mp-754672,TiO2,"O, Ti",2,0.08033827000000038,Orthorhombic,62,Pnma,2.6982,True,False
mp-1079984,BaAl,"Al, Ba",2,0.07773347349999948,Orthorhombic,62,Pnma,0.0,True,True
mp-1103391,Tb2Al,"Al, Tb",2,0.0,Orthorhombic,62,Pnma,0.0,False,True
mp-1106033,Ce3Ir,"Ce, Ir",2,0.03364084812499968,Orthorhombic,62,Pnma,0.0,False,True
mp-1091375,PbS,"Pb, S",2,0.017555328749999433,Orthorhombic,62,Pnma,0.6608999999999998,True,False
mp-17566,Ba5P4,"Ba, P",2,3.472888887223746e-05,Orthorhombic,62,Pnma,0.9365000000000001,False,False
mp-543051,Lu5Sb3,"Lu, Sb",2,0.0,Orthorhombic,62,Pnma,0.0,False,True
mp-1508,LaS2,"La, S",2,0.0,Orthorhombic,62,Pnma,0.6312999999999995,False,False
mp-1869,GaPd2,"Ga, Pd",2,0.0,Orthorhombic,62,Pnma,0.0,False,True
mp-641565,Er5Sb3,"Er, Sb",2,0.0,Orthorhombic,62,Pnma,0.0,False,True
mp-1199847,Dy5Pb4,"Dy, Pb",2,0.0,Orthorhombic,62,Pnma,0.0,False,True
mp-1403480,TeO3,"O, Te",2,0.03341500562499977,Orthorhombic,62,Pnma,1.1349000000000005,True,False
mp-22033,Ti5Sb3,"Sb, Ti",2,0.0,Orthorhombic,62,Pnma,0.0,False,True
mp-1198040,Er5Pb4,"Er, Pb",2,0.0,Orthorhombic,62,Pnma,0.0,False,True
mp-1102018,HfP2,"Hf, P",2,0.0,Orthorhombic,62,Pnma,0.0,False,True
mp-22240,MnAs,"As, Mn",2,0.0,Orthorhombic,62,Pnma,0.0,False,True
mp-1188200,Nd3Ni,"Nd, Ni",2,0.0,Orthorhombic,62,Pnma,0.0,False,True
mp-1209121,RuF6,"F, Ru",2,0.0,Orthorhombic,62,Pnma,0.0,True,True
mp-1188869,Nb2N3,"N, Nb",2,0.017388997749996804,Orthorhombic,62,Pnma,0.0,True,True
mp-1199085,NiP,"Ni, P",2,0.02725429566666726,Orthorhombic,62,Pnma,0.0,False,True
mp-756655,TiO2,"O, Ti",2,0.07446254041666656,Orthorhombic,62,Pnma,2.4317,True,False
mp-20594,CeS2,"Ce, S",2,0.0,Orthorhombic,62,Pnma,0.0,False,True
mp-11437,Er3Rh,"Er, Rh",2,0.0,Orthorhombic,62,Pnma,0.0,False,True
mp-21256,Mn7C3,"C, Mn",2,0.014997985989127827,Orthorhombic,62,Pnma,0.0,False,True
mp-1188994,Tb3Co,"Co, Tb",2,0.0,Orthorhombic,62,Pnma,0.0,False,True
mp-21502,BRh2,"B, Rh",2,0.07446695583333351,Orthorhombic,62,Pnma,0.0,False,True
mp-669684,U3Se5,"Se, U",2,0.012629105491070547,Orthorhombic,62,Pnma,0.0,False,True
mp-583,CoAs,"As, Co",2,0.004044105624998906,Orthorhombic,62,Pnma,0.0,False,True
mp-21359,SbRh2,"Rh, Sb",2,0.0,Orthorhombic,62,Pnma,0.0,False,True
mp-755573,Cs2O,"Cs, O",2,0.05697232416666864,Orthorhombic,62,Pnma,1.6506000000000003,True,False
mp-510623,Fe3C,"C, Fe",2,0.05613104250000056,Orthorhombic,62,Pnma,0.0,False,True
mp-1205450,Pu2Se3,"Pu, Se",2,0.0,Orthorhombic,62,Pnma,0.0,False,True
mp-1908,Pr5Ge4,"Ge, Pr",2,0.020683366388894342,Orthorhombic,62,Pnma,0.0,False,True
mp-1102364,AsRh2,"As, Rh",2,0.08062063166666178,Orthorhombic,62,Pnma,0.0,False,True
mp-569558,AlAu2,"Al, Au",2,0.0,Orthorhombic,62,Pnma,0.0,False,True
mp-893,ZrSi,"Si, Zr",2,0.0008482487499996694,Orthorhombic,62,Pnma,0.0,False,True
mp-1188506,La3Ir,"Ir, La",2,0.00018081625000299084,Orthorhombic,62,Pnma,0.0,False,True
mp-1197972,Er3Ga5,"Er, Ga",2,0.005482532812500551,Orthorhombic,62,Pnma,0.0,False,True
mp-765646,VF5,"F, V",2,0.08184211791666574,Orthorhombic,62,Pnma,2.8583000000000003,True,False
mp-13053,SrSi,"Si, Sr",2,0.009829112500000292,Orthorhombic,62,Pnma,0.0,True,True
mp-1361,IrSe2,"Ir, Se",2,0.0,Orthorhombic,62,Pnma,0.0517000000000003,False,False
mp-862762,Pr3Co,"Co, Pr",2,0.05077495982843416,Orthorhombic,62,Pnma,0.0,False,True
mp-21708,CeCu6,"Ce, Cu",2,0.0001475382142857029,Orthorhombic,62,Pnma,0.0,False,True
mp-1102911,SrF2,"F, Sr",2,0.026659166666664902,Orthorhombic,62,Pnma,7.010800000000001,True,False
mp-569989,Nb2C,"C, Nb",2,0.0,Orthorhombic,62,Pnma,0.0,False,True
mp-759340,VF4,"F, V",2,0.014008983000000086,Orthorhombic,62,Pnma,0.0,True,True
mp-1102496,EuH2,"Eu, H",2,0.0,Orthorhombic,62,Pnma,0.0,False,True
mp-8365,MnB,"B, Mn",2,0.0,Orthorhombic,62,Pnma,0.0,False,True
mp-1209086,Sc5Si4,"Sc, Si",2,0.04180378277777841,Orthorhombic,62,Pnma,0.0,True,True
mp-669509,Gd2S3,"Gd, S",2,0.0,Orthorhombic,62,Pnma,0.5267,False,False
mp-30699,SmCu6,"Cu, Sm",2,0.012533861785716027,Orthorhombic,62,Pnma,0.0,False,True
mp-685022,TePb,"Pb, Te",2,0.05491841249999396,Orthorhombic,62,Pnma,0.7206000000000001,False,False
mp-1198128,Sm5Sn4,"Sm, Sn",2,0.0,Orthorhombic,62,Pnma,0.0,False,True
mp-1188216,Ce2Te3,"Ce, Te",2,0.023493755428573238,Orthorhombic,62,Pnma,0.0,False,True
mp-27655,Te2I,"I, Te",2,0.0,Orthorhombic,62,Pnma,0.6558000000000002,False,False
mp-1095690,Tm2Au,"Au, Tm",2,0.0,Orthorhombic,62,Pnma,0.0,False,True
mp-1189726,TmZn3,"Tm, Zn",2,0.0,Orthorhombic,62,Pnma,0.0,False,True
mp-567314,ErNi,"Er, Ni",2,0.0,Orthorhombic,62,Pnma,0.0,False,True
mp-21693,Ce5Sn4,"Ce, Sn",2,0.0,Orthorhombic,62,Pnma,0.0,False,True
mp-1078864,KGa,"Ga, K",2,0.076792982583334,Orthorhombic,62,Pnma,0.0,False,True
mp-640067,Ni4B3,"B, Ni",2,0.0,Orthorhombic,62,Pnma,0.0,False,True
mp-1079395,CeGe,"Ce, Ge",2,0.0,Orthorhombic,62,Pnma,0.0,False,True
mp-760249,VF4,"F, V",2,0.007409896249997772,Orthorhombic,62,Pnma,1.952,True,False
mp-20589,MoO3,"Mo, O",2,0.027625615624998545,Orthorhombic,62,Pnma,1.9487,False,False
mp-1364,YNi,"Ni, Y",2,0.0,Orthorhombic,62,Pnma,0.0,False,True
mp-972228,Zr3As2,"As, Zr",2,0.0,Orthorhombic,62,Pnma,0.0,False,True
mp-1103252,ZnPd2,"Pd, Zn",2,0.0,Orthorhombic,62,Pnma,0.0,False,True
mp-1205407,Sm3Rh,"Rh, Sm",2,0.0,Orthorhombic,62,Pnma,0.0,False,True
mp-1079180,HoPt,"Ho, Pt",2,0.0,Orthorhombic,62,Pnma,0.0,False,True
mp-570005,SbBr3,"Br, Sb",2,0.0,Orthorhombic,62,Pnma,3.1173,False,False
mp-979911,Y2Au,"Au, Y",2,0.0,Orthorhombic,62,Pnma,0.0,False,True
mp-1506,Sm5Ge4,"Ge, Sm",2,0.0,Orthorhombic,62,Pnma,0.0,False,True
mp-1103212,TaRh2,"Rh, Ta",2,0.0,Orthorhombic,62,Pnma,0.0,False,True
mp-1213259,Mn8Sn5,"Mn, Sn",2,0.09009154281167042,Orthorhombic,62,Pnma,0.0,True,True
mp-1198803,Sc5Ge4,"Ge, Sc",2,0.0,Orthorhombic,62,Pnma,0.0,False,True
mp-1194350,As4Se3,"As, Se",2,0.003208629107142258,Orthorhombic,62,Pnma,1.6237,False,False
mp-1190029,Sm3Os,"Os, Sm",2,0.0,Orthorhombic,62,Pnma,0.0,False,True
mp-1201727,TiO2,"O, Ti",2,0.06658862770833451,Orthorhombic,62,Pnma,2.4439,False,False
mp-1095292,GeF2,"F, Ge",2,0.014314682916666044,Orthorhombic,62,Pnma,4.1384,False,False
mp-1189148,Lu3Ru,"Lu, Ru",2,0.0,Orthorhombic,62,Pnma,0.0,False,True
mp-277,Zr3N4,"N, Zr",2,0.0,Orthorhombic,62,Pnma,0.9704999999999995,False,False
mp-15656,Si4Ir3,"Ir, Si",2,0.0,Orthorhombic,62,Pnma,0.0,False,True
mp-1103411,Dy2Au,"Au, Dy",2,0.0,Orthorhombic,62,Pnma,0.0,False,True
mp-1079295,ErSi,"Er, Si",2,0.0,Orthorhombic,62,Pnma,0.0,False,True
mp-726705,SrO2,"O, Sr",2,0.009602360833332213,Orthorhombic,62,Pnma,2.7824999999999998,False,False
mp-23164,Bi2Se3,"Bi, Se",2,0.014709641000001383,Orthorhombic,62,Pnma,0.9577999999999998,False,False
mp-1188175,Gd2Se3,"Gd, Se",2,0.0,Orthorhombic,62,Pnma,0.4490000000000003,False,False
mp-569347,Nd5Sn4,"Nd, Sn",2,0.0,Orthorhombic,62,Pnma,0.0,False,True
mp-19879,PPd3,"P, Pd",2,0.0,Orthorhombic,62,Pnma,0.0,False,True
mp-1193208,KHg6,"Hg, K",2,0.0,Orthorhombic,62,Pnma,0.0,False,True
mp-680576,Ti2Se,"Se, Ti",2,0.004725174444442537,Orthorhombic,62,Pnma,0.0,False,True
mp-669917,ZrRh,"Rh, Zr",2,0.0,Orthorhombic,62,Pnma,0.0,False,True
mp-1195821,Zr3Cu8,"Cu, Zr",2,0.0,Orthorhombic,62,Pnma,0.0,False,True
mp-2369,SnPd,"Pd, Sn",2,0.0,Orthorhombic,62,Pnma,0.0,False,True
mp-1179336,SnSe,"Se, Sn",2,0.011674828749999477,Orthorhombic,62,Pnma,0.23909999999999965,True,False
mp-1095642,Eu2Ge,"Eu, Ge",2,0.0,Orthorhombic,62,Pnma,0.0,False,True
mp-1106395,Pr3Ir,"Ir, Pr",2,0.0033311404166624925,Orthorhombic,62,Pnma,0.0,False,True
mp-1201625,Er5Bi3,"Bi, Er",2,0.004366516874995341,Orthorhombic,62,Pnma,0.0,False,True
mp-980769,SmCu,"Cu, Sm",2,0.0,Orthorhombic,62,Pnma,0.0,False,True
mp-1204885,Tm5Pb4,"Pb, Tm",2,0.0,Orthorhombic,62,Pnma,0.0,False,True
mp-2231,SnS,"S, Sn",2,0.0,Orthorhombic,62,Pnma,0.9047999999999998,False,False
mp-1199441,Dy5Sn4,"Dy, Sn",2,0.0,Orthorhombic,62,Pnma,0.0,False,True
mp-1178792,Y5Bi3,"Bi, Y",2,0.007485151874998763,Orthorhombic,62,Pnma,0.0,True,True
mp-1102133,Tm2Pt,"Pt, Tm",2,0.0,Orthorhombic,62,Pnma,0.0,False,True
mp-1103395,La2Au,"Au, La",2,0.0,Orthorhombic,62,Pnma,0.0,False,True
mp-1179704,Sb2Se3,"Sb, Se",2,0.0751830195000025,Orthorhombic,62,Pnma,0.4903000000000002,True,False
mp-1189565,Tb3Os,"Os, Tb",2,0.0,Orthorhombic,62,Pnma,0.0,False,True
mp-1025431,SmPt,"Pt, Sm",2,0.0,Orthorhombic,62,Pnma,0.0,False,True
mp-1202542,Lu3Ga5,"Ga, Lu",2,0.0,Orthorhombic,62,Pnma,0.0,False,True
mp-1105994,Th2Se3,"Se, Th",2,0.0,Orthorhombic,62,Pnma,0.0,False,True
mp-623836,ThNi,"Ni, Th",2,0.0,Orthorhombic,62,Pnma,0.0,False,True
mp-1079305,TbPt,"Pt, Tb",2,0.0,Orthorhombic,62,Pnma,0.0,False,True
mp-672341,UF6,"F, U",2,0.0027706635714288552,Orthorhombic,62,Pnma,3.3284000000000002,True,False
mp-1103038,SiIr2,"Ir, Si",2,0.01608838125000034,Orthorhombic,62,Pnma,0.0,False,True
mp-1102441,ReN2,"N, Re",2,0.09598537277777908,Orthorhombic,62,Pnma,0.0,True,True
mp-23260,BaI2,"Ba, I",2,0.0,Orthorhombic,62,Pnma,3.4525000000000006,False,False
mp-1105841,Dy3Ru,"Dy, Ru",2,0.0,Orthorhombic,62,Pnma,0.0,False,True
mp-1199890,Y5Si4,"Si, Y",2,0.011381124166668144,Orthorhombic,62,Pnma,0.0,False,True
mp-1078920,LaCu,"Cu, La",2,0.0,Orthorhombic,62,Pnma,0.0,False,True
mp-768242,PtO3,"O, Pt",2,0.0997697571874987,Orthorhombic,62,Pnma,0.0,True,True
mp-20973,Ce2S3,"Ce, S",2,0.0,Orthorhombic,62,Pnma,0.0,False,True
mp-1025409,TmPt,"Pt, Tm",2,0.0,Orthorhombic,62,Pnma,0.0,True,True
mp-1087547,EuCu,"Cu, Eu",2,0.0,Orthorhombic,62,Pnma,0.0,False,True
mp-1199106,Tm5Pt4,"Pt, Tm",2,0.0010383977777763675,Orthorhombic,62,Pnma,0.0,False,True
mp-2632,TlF3,"F, Tl",2,0.0,Orthorhombic,62,Pnma,1.2702,False,False
mp-1103421,Dy2Pt,"Dy, Pt",2,0.0,Orthorhombic,62,Pnma,0.0,False,True
mp-1103225,Pr2Al,"Al, Pr",2,0.019855749444449344,Orthorhombic,62,Pnma,0.0,False,True
mp-1209057,Sc2Au,"Au, Sc",2,0.0,Orthorhombic,62,Pnma,0.0,True,True
mp-9323,Tb2S3,"S, Tb",2,0.0,Orthorhombic,62,Pnma,0.5792999999999999,False,False
mp-1102332,HgF2,"F, Hg",2,0.013740710833335612,Orthorhombic,62,Pnma,0.7648999999999999,True,False
mp-22270,CoP,"Co, P",2,0.0,Orthorhombic,62,Pnma,0.0,False,True
mp-1189120,Ho3Ir,"Ho, Ir",2,0.0,Orthorhombic,62,Pnma,0.0,False,True
mp-1102477,Eu2Si,"Eu, Si",2,0.0,Orthorhombic,62,Pnma,0.0,False,True
mp-1209044,Sc5Sb3,"Sb, Sc",2,0.0010800237499992704,Orthorhombic,62,Pnma,0.0,True,True
mp-31394,Ca7Sn6,"Ca, Sn",2,0.011303027045454161,Orthorhombic,62,Pnma,0.0,False,True
mp-1189512,Eu3Rh,"Eu, Rh",2,0.0,Orthorhombic,62,Pnma,0.0,False,True
mp-1203353,Sr5Pb4,"Pb, Sr",2,0.03281491694444583,Orthorhombic,62,Pnma,0.0,False,True
mp-624299,Cu7S4,"Cu, S",2,0.0,Orthorhombic,62,Pnma,0.0,False,True
mp-23715,BaH2,"Ba, H",2,0.0,Orthorhombic,62,Pnma,2.8697,False,False
mp-1424,GePd,"Ge, Pd",2,0.0,Orthorhombic,62,Pnma,0.0,False,True
mp-29862,SnBr2,"Br, Sn",2,0.0,Orthorhombic,62,Pnma,2.5387,False,False
mp-15179,Pr2S3,"Pr, S",2,0.0,Orthorhombic,62,Pnma,0.7775000000000003,False,False
mp-1197242,Sr5Bi3,"Bi, Sr",2,0.0,Orthorhombic,62,Pnma,0.0,False,True
mp-20077,USe2,"Se, U",2,0.037688801833340335,Orthorhombic,62,Pnma,0.0,False,True
mp-23230,PCl3,"Cl, P",2,0.0,Orthorhombic,62,Pnma,4.051,False,False
mp-505682,Dy2Te,"Dy, Te",2,0.0,Orthorhombic,62,Pnma,0.006800000000000139,False,False
mp-1214063,Ca5Rh,"Ca, Rh",2,0.0,Orthorhombic,62,Pnma,0.0,True,True
mp-1106011,Nd3Co,"Co, Nd",2,0.025889086666666117,Orthorhombic,62,Pnma,0.0,False,True
mp-1102344,Sm2Al,"Al, Sm",2,0.0009838897916694123,Orthorhombic,62,Pnma,0.0,False,True
mp-7565,SbRu,"Ru, Sb",2,0.061210734999999517,Orthorhombic,62,Pnma,0.0,False,True
mp-11347,TbF3,"F, Tb",2,0.0,Orthorhombic,62,Pnma,7.7552,False,False
mp-1106061,Ca3Pd,"Ca, Pd",2,0.0027539912499996433,Orthorhombic,62,Pnma,0.0,False,True
mp-21048,CrP,"Cr, P",2,0.0,Orthorhombic,62,Pnma,0.0,False,True
mp-20787,FeB,"B, Fe",2,0.016383868750000197,Orthorhombic,62,Pnma,0.0,False,True
mp-540791,Si4Rh3,"Rh, Si",2,0.0,Orthorhombic,62,Pnma,0.0,False,True
mp-636256,LaCu6,"Cu, La",2,0.0004356725892868951,Orthorhombic,62,Pnma,0.0,False,True
mp-1189938,Ho3Ru,"Ho, Ru",2,0.0,Orthorhombic,62,Pnma,0.0,False,True
mp-1189033,Tb3Ru,"Ru, Tb",2,0.0,Orthorhombic,62,Pnma,0.0,False,True
mp-1101972,CdF2,"Cd, F",2,0.02922906250000068,Orthorhombic,62,Pnma,2.7418,True,False
mp-1213070,Eu2Sn,"Eu, Sn",2,0.0,Orthorhombic,62,Pnma,0.0,True,True
mp-1208308,Te2Cl,"Cl, Te",2,0.01631800666666905,Orthorhombic,62,Pnma,0.7073999999999998,True,False
mp-1207780,Y3Rh,"Rh, Y",2,0.0,Orthorhombic,62,Pnma,0.0,False,True
mp-1078613,DyPt,"Dy, Pt",2,0.0,Orthorhombic,62,Pnma,0.0,False,True
mp-1208453,Tb3Pt,"Pt, Tb",2,0.0,Orthorhombic,62,Pnma,0.0,False,True
mp-570884,TeI4,"I, Te",2,0.0,Orthorhombic,62,Pnma,1.7639000000000002,False,False
mp-9371,ErF3,"Er, F",2,0.0,Orthorhombic,62,Pnma,7.6163,False,False
mp-973682,Fe3B,"B, Fe",2,0.017157454375000825,Orthorhombic,62,Pnma,0.0,False,True
mp-1105479,Dy3Pt,"Dy, Pt",2,0.0,Orthorhombic,62,Pnma,0.0,False,True
mp-1102875,Er2Al,"Al, Er",2,0.0,Orthorhombic,62,Pnma,0.0,False,True
mp-1103645,ThP2,"P, Th",2,0.03545675211640287,Orthorhombic,62,Pnma,0.0,False,True
mp-1198576,Tb5Sn4,"Sn, Tb",2,0.0,Orthorhombic,62,Pnma,0.0,False,True
mp-9968,PrSi,"Pr, Si",2,0.0,Orthorhombic,62,Pnma,0.0,False,True
mp-2809,Sb2S3,"S, Sb",2,0.0,Orthorhombic,62,Pnma,1.2866,False,False
mp-2022604,Ag2Se,"Ag, Se",2,0.00980255999999935,Orthorhombic,62,Pnma,0.19159999999999977,True,False
mp-20622,SiPd3,"Pd, Si",2,0.0,Orthorhombic,62,Pnma,0.0,False,True
mp-1208031,Tm3Ni,"Ni, Tm",2,0.0,Orthorhombic,62,Pnma,0.0,False,True
mp-1189686,Nd3Ir,"Ir, Nd",2,0.0015316309374995285,Orthorhombic,62,Pnma,0.0,False,True
mp-12614,Ca2Cu,"Ca, Cu",2,0.0,Orthorhombic,62,Pnma,0.0,False,True
mp-11230,Y2Al,"Al, Y",2,0.0,Orthorhombic,62,Pnma,0.0,False,True
mp-1189947,Lu3Os,"Lu, Os",2,0.0,Orthorhombic,62,Pnma,0.0,False,True
mp-1188800,Sc3P,"P, Sc",2,0.0,Orthorhombic,62,Pnma,0.0,False,True
mp-1207975,Tm3Os,"Os, Tm",2,0.0,Orthorhombic,62,Pnma,0.0,False,True
mp-1468,P4S3,"P, S",2,0.0,Orthorhombic,62,Pnma,2.8693,False,False
mp-31466,Er5Bi3,"Bi, Er",2,0.0,Orthorhombic,62,Pnma,0.0,False,True
mp-9173,TiO2,"O, Ti",2,0.05749979000000138,Orthorhombic,62,Pnma,2.4757000000000007,False,False
mp-30610,Er2Pt,"Er, Pt",2,0.0,Orthorhombic,62,Pnma,0.0,False,True
mp-1198980,Tb5Pt4,"Pt, Tb",2,0.01096459888889001,Orthorhombic,62,Pnma,0.0,False,True
mp-11551,Tb2Pt,"Pt, Tb",2,0.0,Orthorhombic,62,Pnma,0.0,False,True
mp-540703,Cs2S,"Cs, S",2,0.0,Orthorhombic,62,Pnma,2.0952,False,False
mp-27672,Nb2P5,"Nb, P",2,0.019809007193876127,Orthorhombic,62,Pnma,0.0,False,True
mp-1102640,MnPd2,"Mn, Pd",2,0.0,Orthorhombic,62,Pnma,0.0,False,True
mp-1189592,La3Ru,"La, Ru",2,0.00323984125000365,Orthorhombic,62,Pnma,0.0,False,True
mp-1875,TeF6,"F, Te",2,0.0,Orthorhombic,62,Pnma,4.3975,False,False
mp-1106110,Eu2S3,"Eu, S",2,0.098327728000001,Orthorhombic,62,Pnma,0.0,False,True
mp-22856,Bi2S3,"Bi, S",2,0.0,Orthorhombic,62,Pnma,1.3617999999999997,False,False
mp-11550,Sc2Pt,"Pt, Sc",2,0.0,Orthorhombic,62,Pnma,0.0,False,True
mp-1189286,Cr3C,"C, Cr",2,0.012876365752312324,Orthorhombic,62,Pnma,0.0,False,True
mp-1197932,Pr7Ru3,"Pr, Ru",2,0.0,Orthorhombic,62,Pnma,0.0,False,True
mp-20974,VO2,"O, V",2,0.09751762916665108,Orthorhombic,62,Pnma,0.3927999999999998,False,False
mp-1188770,Er3Co,"Co, Er",2,0.0,Orthorhombic,62,Pnma,0.0,False,True
mp-1102319,Lu2Pt,"Lu, Pt",2,0.0,Orthorhombic,62,Pnma,0.0,False,True
mp-22585,GeRh2,"Ge, Rh",2,0.0,Orthorhombic,62,Pnma,0.0,False,True
mp-20713,PuSi,"Pu, Si",2,0.0,Orthorhombic,62,Pnma,0.0,False,True
mp-21115,CeSi,"Ce, Si",2,0.0,Orthorhombic,62,Pnma,0.0,False,True
mp-1192175,RhSe2,"Rh, Se",2,0.0,Orthorhombic,62,Pnma,0.0,False,True
mp-567800,Sm5Si4,"Si, Sm",2,0.0,Orthorhombic,62,Pnma,0.0,False,True
mp-2420244,TiO2,"O, Ti",2,0.01007672916666813,Orthorhombic,62,Pnma,2.8897000000000004,True,False
mp-557321,As4S3,"As, S",2,0.006840436428570129,Orthorhombic,62,Pnma,2.471,False,False
mp-20672,Hf3P2,"Hf, P",2,0.0,Orthorhombic,62,Pnma,0.0,False,True
mp-1244,SrGe2,"Ge, Sr",2,0.014914792499997276,Orthorhombic,62,Pnma,0.3359000000000001,False,False
mp-1198692,Ti5Ge4,"Ge, Ti",2,0.0,Orthorhombic,62,Pnma,0.0,False,True
mp-27641,CsBr3,"Br, Cs",2,0.0,Orthorhombic,62,Pnma,2.2214,False,False
mp-23714,SrH2,"H, Sr",2,0.0,Orthorhombic,62,Pnma,3.1544,False,False
mp-28328,RbI3,"I, Rb",2,0.0,Orthorhombic,62,Pnma,1.8744999999999998,False,False
mp-510412,Si3Ru4,"Ru, Si",2,0.010771962142854363,Orthorhombic,62,Pnma,0.0,False,True
mp-1408708,WO3,"O, W",2,0.010904968437499107,Orthorhombic,62,Pnma,1.3952,True,False
mp-1079811,SmAu,"Au, Sm",2,0.007041326249996871,Orthorhombic,62,Pnma,0.0,False,True
mp-1105522,CoBi3,"Bi, Co",2,0.016537787499999013,Orthorhombic,62,Pnma,0.0,False,True
mp-776470,Hf3N4,"Hf, N",2,0.0,Orthorhombic,62,Pnma,1.0064000000000002,True,False
mp-1198999,Ho5Pt4,"Ho, Pt",2,0.00641640333333271,Orthorhombic,62,Pnma,0.0,False,True
mp-573763,Cs2Te,"Cs, Te",2,0.0,Orthorhombic,62,Pnma,1.7740000000000002,False,False
mp-1198122,Sr7Ge6,"Ge, Sr",2,0.014508441730768595,Orthorhombic,62,Pnma,0.0,False,True
mp-20619,SbRh,"Rh, Sb",2,0.0,Orthorhombic,62,Pnma,0.0,False,True
mp-7342,Sm3Ir,"Ir, Sm",2,0.0014949818749983024,Orthorhombic,62,Pnma,0.0,False,True
mp-1102972,Er2Au,"Au, Er",2,0.0,Orthorhombic,62,Pnma,0.0,False,True
mp-20163,Th2S3,"S, Th",2,0.0010413760000034245,Orthorhombic,62,Pnma,0.0,False,True
mp-1102104,Ho2Pt,"Ho, Pt",2,0.0,Orthorhombic,62,Pnma,0.0,False,True
mp-1202486,La7Ru3,"La, Ru",2,0.0,Orthorhombic,62,Pnma,0.04459999999999997,False,False
mp-1197755,Sc5Sb3,"Sb, Sc",2,0.0,Orthorhombic,62,Pnma,0.0,False,True
mp-1102384,Rb2S,"Rb, S",2,0.013809254166666562,Orthorhombic,62,Pnma,1.9681,False,False
mp-1270,Dy2S3,"Dy, S",2,0.0,Orthorhombic,62,Pnma,0.5937999999999999,False,False
mp-21345,LaGe,"Ge, La",2,0.017364092499999373,Orthorhombic,62,Pnma,0.0,False,True
mp-1188926,Sc3As2,"As, Sc",2,0.0,Orthorhombic,62,Pnma,0.0,False,True
mp-1188532,Lu2S3,"Lu, S",2,0.04504654400000163,Orthorhombic,62,Pnma,0.7199,False,False
mp-1099,NiGe,"Ge, Ni",2,0.0,Orthorhombic,62,Pnma,0.0,False,True
mp-2095,Rb2Te3,"Rb, Te",2,0.0,Orthorhombic,62,Pnma,0.6694999999999998,False,False
mp-17329,PrS2,"Pr, S",2,2.661374999846089e-05,Orthorhombic,62,Pnma,0.32289999999999974,False,False
mp-21681,Nb5Ge4,"Ge, Nb",2,0.049222985171958555,Orthorhombic,62,Pnma,0.0,True,True
mp-28077,PbBr2,"Br, Pb",2,0.027179520833333193,Orthorhombic,62,Pnma,3.0272,False,False
mp-570679,TaI5,"I, Ta",2,0.0,Orthorhombic,62,Pnma,1.1727,False,False
mp-2824,AlPd2,"Al, Pd",2,0.0,Orthorhombic,62,Pnma,0.0,False,True
mp-1673,Tb5Ge4,"Ge, Tb",2,0.0,Orthorhombic,62,Pnma,0.0,False,True
mp-2662,MnP,"Mn, P",2,0.0,Orthorhombic,62,Pnma,0.0,False,True
mp-10464,CaF2,"Ca, F",2,0.03464170166666669,Orthorhombic,62,Pnma,7.467700000000001,False,False
mp-1203966,SrHg8,"Hg, Sr",2,0.028153434920633047,Orthorhombic,62,Pnma,0.0,False,True
mp-2102,PrGe,"Ge, Pr",2,0.0,Orthorhombic,62,Pnma,0.0,False,True
mp-1080307,CeSe2,"Ce, Se",2,0.08592956499999893,Orthorhombic,62,Pnma,0.6930000000000001,True,False
mp-1224,HgO,"Hg, O",2,0.0,Orthorhombic,62,Pnma,1.1867,False,False
mp-542829,Ho5Si4,"Ho, Si",2,0.01830347805555732,Orthorhombic,62,Pnma,0.0,False,True
mp-20517,BPd3,"B, Pd",2,0.0,Orthorhombic,62,Pnma,0.0,False,True
mp-623751,Tb3Ni,"Ni, Tb",2,0.0,Orthorhombic,62,Pnma,0.0,False,True
mp-7951,ThSe2,"Se, Th",2,0.0,Orthorhombic,62,Pnma,0.6304999999999996,False,False
mp-1105633,Y3Ni,"Ni, Y",2,0.0,Orthorhombic,62,Pnma,0.0,False,True
mp-759097,VF3,"F, V",2,0.0013429462500003098,Orthorhombic,62,Pnma,1.6507,True,False
mp-21833,Mo4P3,"Mo, P",2,0.013805455178570014,Orthorhombic,62,Pnma,0.0,False,True