material_id,formula,elements,num_elements,energy_above_hull,crystal_system,spacegroup_number,spacegroup_symbol,band_gap,theoretical,is_metal
mp-862816,PaGe3,"Ge, Pa",2,0.0,Cubic,221,Pm-3m,0.0,True,True
mp-558852,FeF3,"F, Fe",2,0.020977064583333593,Cubic,221,Pm-3m,2.8517,True,False
mp-20272,GdPt3,"Gd, Pt",2,0.0,Cubic,221,Pm-3m,0.0,False,True
mp-11245,HoAu,"Au, Ho",2,0.03745228750000251,Cubic,221,Pm-3m,0.0,False,True
mp-2515,CrPt3,"Cr, Pt",2,0.0,Cubic,221,Pm-3m,0.0,False,True
mp-1184275,Eu3Mg,"Eu, Mg",2,0.05312932531249537,Cubic,221,Pm-3m,0.0,True,True
mp-11476,HoIr,"Ho, Ir",2,0.0,Cubic,221,Pm-3m,0.0,False,True
mp-984700,CeY3,"Ce, Y",2,0.07526279625000143,Cubic,221,Pm-3m,0.0,True,True
mp-863750,AgAu3,"Ag, Au",2,0.0,Cubic,221,Pm-3m,0.0,True,True
mp-1038934,MgAl,"Al, Mg",2,0.09022261874999993,Cubic,221,Pm-3m,0.0,True,True
mp-1187471,ThBi3,"Bi, Th",2,0.04351332750000658,Cubic,221,Pm-3m,0.0,True,True
mp-1911,CeSn3,"Ce, Sn",2,0.0,Cubic,221,Pm-3m,0.0,False,True
mp-1471,Zr3Al,"Al, Zr",2,0.0,Cubic,221,Pm-3m,0.0,False,True
mp-614455,GdCu,"Cu, Gd",2,0.009389447500002035,Cubic,221,Pm-3m,0.0,False,True
mp-20023,PrIn,"In, Pr",2,0.0,Cubic,221,Pm-3m,0.0,False,True
mp-1183698,Co3Ir,"Co, Ir",2,0.0508543437500002,Cubic,221,Pm-3m,0.0,True,True
mp-2092,CePd3,"Ce, Pd",2,0.0,Cubic,221,Pm-3m,0.0,False,True
mp-11452,HfOs,"Hf, Os",2,0.0,Cubic,221,Pm-3m,0.0,False,True
mp-2314,LiPb,"Li, Pb",2,0.0,Cubic,221,Pm-3m,0.0,False,True
mp-1201611,NpCd11,"Cd, Np",2,0.034168359826384886,Cubic,221,Pm-3m,0.0,False,True
mp-30496,SrCd,"Cd, Sr",2,0.0,Cubic,221,Pm-3m,0.0,False,True
mp-21156,TbPb3,"Pb, Tb",2,0.0,Cubic,221,Pm-3m,0.0,False,True
mp-975797,PrSm3,"Pr, Sm",2,0.03131227708333384,Cubic,221,Pm-3m,0.0,True,True
mp-1002230,PuBi,"Bi, Pu",2,0.025870288125000585,Cubic,221,Pm-3m,0.0,True,True
mp-1186552,PmDy3,"Dy, Pm",2,0.038127224375003266,Cubic,221,Pm-3m,0.0,True,True
mp-983594,Al3Ga,"Al, Ga",2,0.043444177500000514,Cubic,221,Pm-3m,0.0,True,True
mp-31337,InPd3,"In, Pd",2,0.031658931249999966,Cubic,221,Pm-3m,0.0,False,True
mp-1183137,Ag3Au,"Ag, Au",2,0.0,Cubic,221,Pm-3m,0.0,True,True
mp-11471,ScHg,"Hg, Sc",2,0.0,Cubic,221,Pm-3m,0.0,False,True
mp-1678,PuRh3,"Pu, Rh",2,0.0,Cubic,221,Pm-3m,0.0,False,True
mp-1184703,Hf3Pb,"Hf, Pb",2,0.019860790000002737,Cubic,221,Pm-3m,0.0,True,True
mp-7753,MgPd3,"Mg, Pd",2,0.01137175124999068,Cubic,221,Pm-3m,0.0,False,True
mp-2434,SrTl,"Sr, Tl",2,0.0,Cubic,221,Pm-3m,0.0,False,True
mp-1395,VRu,"Ru, V",2,0.0,Cubic,221,Pm-3m,0.0,False,True
mp-570860,DySn3,"Dy, Sn",2,0.0327665194999982,Cubic,221,Pm-3m,0.0,False,True
mp-1094855,La3Mg,"La, Mg",2,0.04349490875000139,Cubic,221,Pm-3m,0.0,True,True
mp-976949,Lu3In,"In, Lu",2,0.016917669583335737,Cubic,221,Pm-3m,0.0,True,True
mp-417,MnRh,"Mn, Rh",2,0.0,Cubic,221,Pm-3m,0.0,False,True
mp-11229,YAl,"Al, Y",2,0.030594507500000034,Cubic,221,Pm-3m,0.0,False,True
mp-11467,NdHg,"Hg, Nd",2,0.0,Cubic,221,Pm-3m,0.0,False,True
mp-1548,PrMg,"Mg, Pr",2,0.0,Cubic,221,Pm-3m,0.0,False,True
mp-1017529,VCo3,"Co, V",2,0.087322275,Cubic,221,Pm-3m,0.0,True,True
mp-569593,PmMg,"Mg, Pm",2,0.0,Cubic,221,Pm-3m,0.0,True,True
mp-976589,NaIn3,"In, Na",2,0.0,Cubic,221,Pm-3m,0.0,True,True
mp-976847,Ni3Sb,"Ni, Sb",2,0.04490288750000104,Cubic,221,Pm-3m,0.0,True,True
mp-2413,Ce3Al,"Al, Ce",2,0.0,Cubic,221,Pm-3m,0.0,False,True
mp-976599,LiHg3,"Hg, Li",2,0.029448351250003668,Cubic,221,Pm-3m,0.0,True,True
mp-1187913,ZnPd3,"Pd, Zn",2,0.02884696312500079,Cubic,221,Pm-3m,0.0,True,True
mp-381,SiRu,"Ru, Si",2,0.00768500249999704,Cubic,221,Pm-3m,0.0,False,True
mp-1183621,Cd3Pd,"Cd, Pd",2,0.04429121256756874,Cubic,221,Pm-3m,0.0,True,True
mp-177,USb,"Sb, U",2,0.0,Cubic,221,Pm-3m,0.0,False,True
mp-1184558,Hf3Sn,"Hf, Sn",2,0.021194234166664216,Cubic,221,Pm-3m,0.0,True,True
mp-1187049,Th3Pb,"Pb, Th",2,0.05655934687500519,Cubic,221,Pm-3m,0.0,True,True
mp-7425,TbPt,"Pt, Tb",2,0.07815921750000143,Cubic,221,Pm-3m,0.0,True,True
mp-1094724,Mg3Sb,"Mg, Sb",2,0.07368902328125015,Cubic,221,Pm-3m,0.0,True,True
mp-30373,RbAu,"Au, Rb",2,0.0,Cubic,221,Pm-3m,0.3698999999999999,False,False
mp-1185604,LaCe3,"Ce, La",2,0.09784582625000127,Cubic,221,Pm-3m,0.0,True,True
mp-11477,HoSn3,"Ho, Sn",2,0.02741593000000364,Cubic,221,Pm-3m,0.0,False,True
mp-11503,MnZn,"Mn, Zn",2,0.0832009423563207,Cubic,221,Pm-3m,0.0,False,True
mp-11578,VZn3,"V, Zn",2,0.0,Cubic,221,Pm-3m,0.0,False,True
mp-21005,GdIn,"Gd, In",2,0.001510005000000092,Cubic,221,Pm-3m,0.0,False,True
mp-22266,GdB6,"B, Gd",2,0.0,Cubic,221,Pm-3m,0.0,False,True
mp-1918,FeRh,"Fe, Rh",2,0.0,Cubic,221,Pm-3m,0.0,False,True
mp-2351,TmPt3,"Pt, Tm",2,0.0,Cubic,221,Pm-3m,0.0,False,True
mp-1183501,Ca3Cd,"Ca, Cd",2,0.056827950312499764,Cubic,221,Pm-3m,0.0,True,True
mp-2249,HoZn,"Ho, Zn",2,0.0,Cubic,221,Pm-3m,0.0,False,True
mp-832,HoPd,"Ho, Pd",2,0.028122391250001044,Cubic,221,Pm-3m,0.0,False,True
mp-1236,NdAg,"Ag, Nd",2,0.0,Cubic,221,Pm-3m,0.0,False,True
mp-12762,PrB6,"B, Pr",2,0.0,Cubic,221,Pm-3m,0.0,False,True
mp-2054,TbHg,"Hg, Tb",2,0.0,Cubic,221,Pm-3m,0.0,False,True
mp-11226,Tb3Al,"Al, Tb",2,0.02856140375000038,Cubic,221,Pm-3m,0.0,False,True
mp-11575,YTl,"Tl, Y",2,0.0,Cubic,221,Pm-3m,0.0,False,True
mp-862959,PmRh3,"Pm, Rh",2,0.0,Cubic,221,Pm-3m,0.0,True,True
mp-2757,CdAu,"Au, Cd",2,0.011665960555554022,Cubic,221,Pm-3m,0.0,False,True
mp-1529,LuIr,"Ir, Lu",2,0.0,Cubic,221,Pm-3m,0.0,False,True
mp-1184060,Dy3Al,"Al, Dy",2,0.033405418125003195,Cubic,221,Pm-3m,0.0,True,True
mp-11364,TiCu,"Cu, Ti",2,0.0826696000000009,Cubic,221,Pm-3m,0.0,True,True
mp-1186495,Pm3Er,"Er, Pm",2,0.03687215854166226,Cubic,221,Pm-3m,0.0,True,True
mp-1022721,AlCu,"Al, Cu",2,0.07406123800000053,Cubic,221,Pm-3m,0.0,True,True
mp-570409,PrAl3,"Al, Pr",2,0.08849793000000084,Cubic,221,Pm-3m,0.0,False,True
mp-265,TaIr3,"Ir, Ta",2,0.0,Cubic,221,Pm-3m,0.0,False,True
mp-1094768,MgZr3,"Mg, Zr",2,0.01926654624999813,Cubic,221,Pm-3m,0.0,True,True
mp-22901,KI,"I, K",2,0.0603117399999995,Cubic,221,Pm-3m,3.2403999999999997,False,False
mp-30746,YIr,"Ir, Y",2,0.0,Cubic,221,Pm-3m,0.0,False,True
mp-1018054,HfPt3,"Hf, Pt",2,0.007669869374979044,Cubic,221,Pm-3m,0.0,True,True
mp-1018021,NbCo3,"Co, Nb",2,0.01716544249999785,Cubic,221,Pm-3m,0.0,True,True
mp-976358,Nd3Al,"Al, Nd",2,0.023285550000000654,Cubic,221,Pm-3m,0.0,True,True
mp-1183130,Al3Ag,"Ag, Al",2,0.0712581868749993,Cubic,221,Pm-3m,0.0,True,True
mp-1187222,Sr3Eu,"Eu, Sr",2,0.06775199624999928,Cubic,221,Pm-3m,0.0,True,True
mp-11418,TbGa3,"Ga, Tb",2,0.05165591625000232,Cubic,221,Pm-3m,0.0,False,True
mp-1186970,Sc3Sn,"Sc, Sn",2,0.005275915000000353,Cubic,221,Pm-3m,0.0,True,True
mp-1094857,Ca3Mg,"Ca, Mg",2,0.028335638124999507,Cubic,221,Pm-3m,0.0,True,True
mp-12107,TiPt3,"Pt, Ti",2,0.004863833214280078,Cubic,221,Pm-3m,0.0,False,True
mp-829,AlPd,"Al, Pd",2,0.037793284999999344,Cubic,221,Pm-3m,0.0,False,True
mp-2802,HfRu,"Hf, Ru",2,0.0,Cubic,221,Pm-3m,0.0,False,True
mp-973865,PaAl3,"Al, Pa",2,0.03944891749999968,Cubic,221,Pm-3m,0.0,True,True
mp-1008349,Co3Ni,"Co, Ni",2,0.01565101874999897,Cubic,221,Pm-3m,0.0,True,True
mp-1487,AlNi,"Al, Ni",2,0.0,Cubic,221,Pm-3m,0.0,False,True
mp-570891,KBr,"Br, K",2,0.07306301000000026,Cubic,221,Pm-3m,3.8761,False,False
mp-11370,ErIn,"Er, In",2,0.0,Cubic,221,Pm-3m,0.0,False,True
mp-19977,SmIn3,"In, Sm",2,0.0,Cubic,221,Pm-3m,0.0,False,True
mp-1184209,GaPd3,"Ga, Pd",2,0.05688534149999924,Cubic,221,Pm-3m,0.0,True,True
mp-572,SmCd,"Cd, Sm",2,0.0,Cubic,221,Pm-3m,0.0,False,True
mp-8039,AlF3,"Al, F",2,0.009358996249999585,Cubic,221,Pm-3m,7.420299999999999,False,False
mp-12674,MnAu,"Au, Mn",2,0.0,Cubic,221,Pm-3m,0.0,False,True
mp-12593,ScIr3,"Ir, Sc",2,0.0,Cubic,221,Pm-3m,0.0,False,True
mp-11286,CaHg,"Ca, Hg",2,0.0,Cubic,221,Pm-3m,0.0,False,True
mp-977585,Zr3Tl,"Tl, Zr",2,0.0,Cubic,221,Pm-3m,0.0,True,True
mp-1188008,Zr3Ga,"Ga, Zr",2,0.043778628749997495,Cubic,221,Pm-3m,0.0,True,True
mp-1187638,Tl3In,"In, Tl",2,0.05327636250000012,Cubic,221,Pm-3m,0.0,True,True
mp-570691,Ti3Sn,"Sn, Ti",2,0.03354331625000029,Cubic,221,Pm-3m,0.0,False,True
mp-2268,TbAg,"Ag, Tb",2,0.0,Cubic,221,Pm-3m,0.0,False,True
mp-1183732,CeTh3,"Ce, Th",2,0.017019385000011766,Cubic,221,Pm-3m,0.0,True,True
mp-11255,PrAu,"Au, Pr",2,0.060553865000002816,Cubic,221,Pm-3m,0.0,False,True
mp-1187532,Tl3Au,"Au, Tl",2,0.07487485250000248,Cubic,221,Pm-3m,0.0,True,True
mp-1183967,GaAg3,"Ag, Ga",2,0.0428271695833331,Cubic,221,Pm-3m,0.0,True,True
mp-2677,ScPd3,"Pd, Sc",2,0.0,Cubic,221,Pm-3m,0.0,False,True
mp-12778,VOs,"Os, V",2,0.0,Cubic,221,Pm-3m,0.0,False,True
mp-1912,ZnAg,"Ag, Zn",2,0.0,Cubic,221,Pm-3m,0.0,False,True
mp-2573,NpAl3,"Al, Np",2,0.04995892562499904,Cubic,221,Pm-3m,0.0,False,True
mp-978823,SmY3,"Sm, Y",2,0.07348738999999682,Cubic,221,Pm-3m,0.0,True,True
mp-1076927,GdPb3,"Gd, Pb",2,0.0,Cubic,221,Pm-3m,0.0,False,True
mp-2203,YB6,"B, Y",2,0.011403886160714194,Cubic,221,Pm-3m,0.0,False,True
mp-1129,ScIr,"Ir, Sc",2,0.0,Cubic,221,Pm-3m,0.0,False,True
mp-981390,HgBi3,"Bi, Hg",2,0.09012482687499812,Cubic,221,Pm-3m,0.0,True,True
mp-867199,Pm3Tl,"Pm, Tl",2,0.0,Cubic,221,Pm-3m,0.0,True,True
mp-2560,Ti3Hg,"Hg, Ti",2,0.07098824124999936,Cubic,221,Pm-3m,0.0,False,True
mp-976588,HoTh3,"Ho, Th",2,0.04728064625000883,Cubic,221,Pm-3m,0.0,True,True
mp-1033,BeNi,"Be, Ni",2,0.0,Cubic,221,Pm-3m,0.0,False,True
mp-371,La3Tl,"La, Tl",2,0.0,Cubic,221,Pm-3m,0.0,False,True
mp-11279,TiBe,"Be, Ti",2,0.005038837916666594,Cubic,221,Pm-3m,0.0,False,True
mp-11254,NdAu,"Au, Nd",2,0.05635148500000042,Cubic,221,Pm-3m,0.0,False,True
mp-364,AlRh,"Al, Rh",2,0.0,Cubic,221,Pm-3m,0.0,False,True
mp-1014230,TiZn,"Ti, Zn",2,0.0,Cubic,221,Pm-3m,0.0,True,True
mp-19966,GdTl,"Gd, Tl",2,0.0,Cubic,221,Pm-3m,0.0,False,True
mp-20909,La3In,"In, La",2,0.0,Cubic,221,Pm-3m,0.0,False,True
mp-976420,Nd3Ho,"Ho, Nd",2,0.029785583125001125,Cubic,221,Pm-3m,0.0,True,True
mp-568711,VPd3,"Pd, V",2,0.0,Cubic,221,Pm-3m,0.0,False,True
mp-973875,Ga3Ge,"Ga, Ge",2,0.08742118812500088,Cubic,221,Pm-3m,0.0,True,True
mp-20206,ThIn3,"In, Th",2,0.0,Cubic,221,Pm-3m,0.0,False,True
mp-542779,GdAg,"Ag, Gd",2,0.0,Cubic,221,Pm-3m,0.0,False,True
mp-1103521,Sr8Rh5,"Rh, Sr",2,0.06306937846153815,Cubic,221,Pm-3m,0.0,False,True
mp-2465,DyPt3,"Dy, Pt",2,0.0,Cubic,221,Pm-3m,0.0,False,True
mp-790,LuPt3,"Lu, Pt",2,0.0,Cubic,221,Pm-3m,0.0,False,True
mp-1183627,CdAg3,"Ag, Cd",2,0.007372807499997691,Cubic,221,Pm-3m,0.0,True,True
mp-2167,DyAg,"Ag, Dy",2,0.0,Cubic,221,Pm-3m,0.0,False,True
mp-11572,TaTc,"Ta, Tc",2,0.0,Cubic,221,Pm-3m,0.0,False,True
mp-10889,La3Al,"Al, La",2,0.04054629000000176,Cubic,221,Pm-3m,0.0,False,True
mp-246,TiF3,"F, Ti",2,0.0,Cubic,221,Pm-3m,0.0,False,True
mp-1600,BaHg11,"Ba, Hg",2,0.023561886180550773,Cubic,221,Pm-3m,0.0,False,True
mp-953,NbZn3,"Nb, Zn",2,0.0,Cubic,221,Pm-3m,0.0,False,True
mp-1608,ZrHg3,"Hg, Zr",2,0.02171306624999403,Cubic,221,Pm-3m,0.0,False,True
mp-1979,HoPd3,"Ho, Pd",2,0.0,Cubic,221,Pm-3m,0.0,False,True
mp-1187636,Tm3Hg,"Hg, Tm",2,0.09245534916666998,Cubic,221,Pm-3m,0.0,True,True
mp-11564,TmRh,"Rh, Tm",2,0.0,Cubic,221,Pm-3m,0.0,False,True
mp-2210,ZrCu,"Cu, Zr",2,0.04223478423077154,Cubic,221,Pm-3m,0.0,False,True
mp-2179,TiRe,"Re, Ti",2,0.0,Cubic,221,Pm-3m,0.0,False,True
mp-1094090,Ni4N,"N, Ni",2,0.06668797600000076,Cubic,221,Pm-3m,0.0,True,True
mp-999189,Fe3Ni,"Fe, Ni",2,0.0776360924999997,Cubic,221,Pm-3m,0.0,True,True
mp-973232,NdTm3,"Nd, Tm",2,0.04954279312499921,Cubic,221,Pm-3m,0.0,True,True
mp-388,ErPb3,"Er, Pb",2,0.0,Cubic,221,Pm-3m,0.0,False,True
mp-571405,NdTl,"Nd, Tl",2,0.0,Cubic,221,Pm-3m,0.0,False,True
mp-1185786,Mg3Tl,"Mg, Tl",2,0.017983151250000162,Cubic,221,Pm-3m,0.0,True,True
mp-866006,CaBi3,"Bi, Ca",2,0.010853763750000578,Cubic,221,Pm-3m,0.0,True,True
mp-1187665,Ti3In,"In, Ti",2,0.014760678749999201,Cubic,221,Pm-3m,0.0,True,True
mp-1187052,Th3Pa,"Pa, Th",2,0.09098961750000001,Cubic,221,Pm-3m,0.0,True,True
mp-1184423,Gd3I,"Gd, I",2,0.0,Cubic,221,Pm-3m,0.0,True,True
mp-1019319,TcN,"N, Tc",2,0.028997522812499454,Cubic,221,Pm-3m,0.0,True,True
mp-20601,NdPb3,"Nd, Pb",2,0.0,Cubic,221,Pm-3m,0.0,False,True
mp-2013,HoTl3,"Ho, Tl",2,0.0,Cubic,221,Pm-3m,0.0,False,True
mp-973908,PaFe3,"Fe, Pa",2,0.031237945000000877,Cubic,221,Pm-3m,0.0,True,True
mp-1186985,ScNi3,"Ni, Sc",2,0.02393982208333334,Cubic,221,Pm-3m,0.0,True,True
mp-1885,AlIr,"Al, Ir",2,0.0,Cubic,221,Pm-3m,0.0,False,True
mp-20487,La3Ga,"Ga, La",2,0.07183331791666703,Cubic,221,Pm-3m,0.0,False,True
mp-11536,NpRh3,"Np, Rh",2,0.0,Cubic,221,Pm-3m,0.0,False,True
mp-1183834,CeHo3,"Ce, Ho",2,0.06846398625000205,Cubic,221,Pm-3m,0.0,True,True
mp-571491,HoB6,"B, Ho",2,0.037382768571429636,Cubic,221,Pm-3m,0.0,False,True
mp-601842,Fe9Co7,"Co, Fe",2,0.0,Cubic,221,Pm-3m,0.0,True,True
mp-481,ScPt3,"Pt, Sc",2,0.0,Cubic,221,Pm-3m,0.0,False,True
mp-2093,Pr3Al,"Al, Pr",2,0.032819397916668436,Cubic,221,Pm-3m,0.0,False,True
mp-20695,Zr3In,"In, Zr",2,0.0,Cubic,221,Pm-3m,0.0,False,True
mp-2001,LaTl3,"La, Tl",2,0.0,Cubic,221,Pm-3m,0.0,False,True
mp-1486,ZnNi,"Ni, Zn",2,0.009157754999999934,Cubic,221,Pm-3m,0.0,False,True
mp-984713,Dy3Ga,"Dy, Ga",2,0.09511176984374714,Cubic,221,Pm-3m,0.0,True,True
mp-1094670,LiMg3,"Li, Mg",2,0.03397517125000027,Cubic,221,Pm-3m,0.0,True,True
mp-12598,PrPt3,"Pr, Pt",2,0.05197031750000303,Cubic,221,Pm-3m,0.0,False,True
mp-1185080,KRb3,"K, Rb",2,0.022712940062499465,Cubic,221,Pm-3m,0.0,True,True
mp-1204208,ThCd11,"Cd, Th",2,0.0,Cubic,221,Pm-3m,0.0,False,True
mp-1007852,FeCo3,"Co, Fe",2,0.056625132499999786,Cubic,221,Pm-3m,0.0,True,True
mp-20176,DyPb3,"Dy, Pb",2,0.0,Cubic,221,Pm-3m,0.0,False,True
mp-2449,NbRh3,"Nb, Rh",2,0.00891538750000187,Cubic,221,Pm-3m,0.0,False,True
mp-608,TiCo3,"Co, Ti",2,0.04045357499999902,Cubic,221,Pm-3m,0.0,False,True
mp-291,TiOs,"Os, Ti",2,0.0,Cubic,221,Pm-3m,0.0,False,True
mp-861982,PaGa3,"Ga, Pa",2,0.005984425000001181,Cubic,221,Pm-3m,0.0,True,True
mp-1039148,CaMg,"Ca, Mg",2,0.00029910124999932286,Cubic,221,Pm-3m,0.0,True,True
mp-1261,EuZn,"Eu, Zn",2,0.0,Cubic,221,Pm-3m,0.0,False,True
mp-2658,AlFe,"Al, Fe",2,0.0,Cubic,221,Pm-3m,0.0,False,True
mp-615,YMg,"Mg, Y",2,0.0,Cubic,221,Pm-3m,0.0,False,True
mp-1094786,Sr3Mg,"Mg, Sr",2,0.07847616374999977,Cubic,221,Pm-3m,0.0,True,True
mp-569120,NdPt3,"Nd, Pt",2,0.017379455000005706,Cubic,221,Pm-3m,0.0,False,True
mp-30351,MgAg3,"Ag, Mg",2,0.010391439999999363,Cubic,221,Pm-3m,0.0,False,True
mp-1902,MnPd,"Mn, Pd",2,0.009346633413791494,Cubic,221,Pm-3m,0.0,False,True
mp-12083,CrIr3,"Cr, Ir",2,0.0,Cubic,221,Pm-3m,0.0,False,True
mp-862861,Pa3Si,"Pa, Si",2,0.0,Cubic,221,Pm-3m,0.0,True,True
mp-974951,Rb3Hg,"Hg, Rb",2,0.06380580652343759,Cubic,221,Pm-3m,0.0,True,True
mp-30741,PaIr3,"Ir, Pa",2,0.0,Cubic,221,Pm-3m,0.0,False,True
mp-978294,Mg3Sn,"Mg, Sn",2,0.009186113749999336,Cubic,221,Pm-3m,0.0,True,True
mp-1184479,Gd3In,"Gd, In",2,0.0,Cubic,221,Pm-3m,0.0,True,True
mp-1187484,TlBi3,"Bi, Tl",2,0.081235227500005,Cubic,221,Pm-3m,0.0,True,True
mp-2781,ScPd,"Pd, Sc",2,0.0,Cubic,221,Pm-3m,0.0,False,True
mp-1002122,HfIr,"Hf, Ir",2,0.04242818999999898,Cubic,221,Pm-3m,0.0,True,True
mp-1039106,SnBi,"Bi, Sn",2,0.09279261250000026,Cubic,221,Pm-3m,0.0,True,True
mp-1185,VRh3,"Rh, V",2,0.008832503749999887,Cubic,221,Pm-3m,0.0,False,True
mp-1335,VFe,"Fe, V",2,0.021580906875001915,Cubic,221,Pm-3m,0.0,False,True
mp-2163,HoRh,"Ho, Rh",2,0.0,Cubic,221,Pm-3m,0.0,False,True
mp-1094922,CaMg3,"Ca, Mg",2,0.0575648374999993,Cubic,221,Pm-3m,0.0,True,True
mp-976147,PrEr3,"Er, Pr",2,0.06234438958333044,Cubic,221,Pm-3m,0.0,True,True
mp-1186323,NdSm3,"Nd, Sm",2,0.027672930624998315,Cubic,221,Pm-3m,0.0,True,True
mp-2468,ErHg,"Er, Hg",2,0.0,Cubic,221,Pm-3m,0.0,False,True
mp-20729,LaIn3,"In, La",2,0.0,Cubic,221,Pm-3m,0.0,False,True
mp-978281,Mg3Ga,"Ga, Mg",2,0.031655937500000064,Cubic,221,Pm-3m,0.0,True,True
mp-30856,ZnPt3,"Pt, Zn",2,0.0,Cubic,221,Pm-3m,0.0,False,True
mp-11494,LuPb3,"Lu, Pb",2,0.022627460000002486,Cubic,221,Pm-3m,0.0,False,True
mp-1183737,Ce3Dy,"Ce, Dy",2,0.09906579124999837,Cubic,221,Pm-3m,0.0,True,True
mp-2474,YAg,"Ag, Y",2,0.0,Cubic,221,Pm-3m,0.0,False,True
mp-1187486,Tl3Sb,"Sb, Tl",2,0.01786045607141773,Cubic,221,Pm-3m,0.0,True,True
mp-11261,YAu,"Au, Y",2,0.042603579999997976,Cubic,221,Pm-3m,0.0,False,True
mp-1184575,Ho3Er,"Er, Ho",2,0.059782880000000205,Cubic,221,Pm-3m,0.0,True,True
mp-23289,KCl,"Cl, K",2,0.07764382000000047,Cubic,221,Pm-3m,4.8004999999999995,False,False
mp-21085,PuPd3,"Pd, Pu",2,0.0,Cubic,221,Pm-3m,0.0,False,True
mp-21008,Ni3Ge,"Ge, Ni",2,0.0,Cubic,221,Pm-3m,0.0,False,True
mp-568106,Mg41Al67,"Al, Mg",2,0.05170004335648093,Cubic,221,Pm-3m,0.0,False,True
mp-1518,CeRh3,"Ce, Rh",2,0.0,Cubic,221,Pm-3m,0.0,False,True
mp-1186225,NbOs3,"Nb, Os",2,0.03935417152778342,Cubic,221,Pm-3m,0.0,True,True
mp-981545,Ho3Zr,"Ho, Zr",2,0.0845501399999975,Cubic,221,Pm-3m,0.0,True,True
mp-2773,BeCo,"Be, Co",2,0.0,Cubic,221,Pm-3m,0.0,False,True
mp-12599,PrTl,"Pr, Tl",2,0.0,Cubic,221,Pm-3m,0.0,False,True
mp-977,LuIn3,"In, Lu",2,0.0,Cubic,221,Pm-3m,0.0,False,True
mp-985282,Ag3Ge,"Ag, Ge",2,0.09973090625000225,Cubic,221,Pm-3m,0.0,True,True
mp-1007656,HfPd3,"Hf, Pd",2,0.014758419999946426,Cubic,221,Pm-3m,0.0,True,True
mp-20258,GdIn3,"Gd, In",2,0.0,Cubic,221,Pm-3m,0.0,False,True
mp-2228,ErMg,"Er, Mg",2,0.0,Cubic,221,Pm-3m,0.0,False,True
mp-867248,LaBi3,"Bi, La",2,0.0,Cubic,221,Pm-3m,0.0,True,True
mp-569352,NdTl3,"Nd, Tl",2,0.0,Cubic,221,Pm-3m,0.0,False,True
mp-1977,NdSn3,"Nd, Sn",2,0.0,Cubic,221,Pm-3m,0.0,False,True
mp-1186967,Sc3Hg,"Hg, Sc",2,0.021109168750001572,Cubic,221,Pm-3m,0.0,True,True
mp-12086,Cu3Pt,"Cu, Pt",2,0.0,Cubic,221,Pm-3m,0.0,False,True
mp-2516,YZn,"Y, Zn",2,0.0,Cubic,221,Pm-3m,0.0,False,True
mp-1291,ErIn3,"Er, In",2,0.0,Cubic,221,Pm-3m,0.0,False,True
mp-2415,DyTl3,"Dy, Tl",2,0.0,Cubic,221,Pm-3m,0.0,False,True
mp-974627,K3Tl,"K, Tl",2,0.08472879322321436,Cubic,221,Pm-3m,0.0,True,True
mp-1184361,Ga3Pb,"Ga, Pb",2,0.09364574937499981,Cubic,221,Pm-3m,0.0,True,True
mp-11222,Sm3Al,"Al, Sm",2,0.029456104062500543,Cubic,221,Pm-3m,0.0,False,True
mp-20828,Pt3Pb,"Pb, Pt",2,0.03465780500000193,Cubic,221,Pm-3m,0.0,False,True
mp-570291,DyGa3,"Dy, Ga",2,0.04095822000000027,Cubic,221,Pm-3m,0.0,False,True
mp-188,AlPt3,"Al, Pt",2,0.01388988312499606,Cubic,221,Pm-3m,0.0,False,True
mp-11570,TbSn3,"Sn, Tb",2,0.019348855833334788,Cubic,221,Pm-3m,0.0,False,True
mp-2333,NdPd3,"Nd, Pd",2,0.0,Cubic,221,Pm-3m,0.0,False,True
mp-1681,La3Sn,"La, Sn",2,0.0,Cubic,221,Pm-3m,0.0,False,True
mp-1183761,CeEr3,"Ce, Er",2,0.06623503624999927,Cubic,221,Pm-3m,0.0,True,True
mp-862970,PmTl3,"Pm, Tl",2,0.0,Cubic,221,Pm-3m,0.0,True,True
mp-11541,ZrOs,"Os, Zr",2,0.0,Cubic,221,Pm-3m,0.0,False,True
mp-1187305,Tb3Sc,"Sc, Tb",2,0.06118799875000036,Cubic,221,Pm-3m,0.0,True,True
mp-20786,Dy3In,"Dy, In",2,0.010385917500002506,Cubic,221,Pm-3m,0.0,True,True
mp-12793,NdAl,"Al, Nd",2,0.0665096187500005,Cubic,221,Pm-3m,0.0,False,True
mp-979269,Tl3Cd,"Cd, Tl",2,0.07145271999999636,Cubic,221,Pm-3m,0.0,True,True
mp-980945,Ti3Nb,"Nb, Ti",2,0.08445038499999846,Cubic,221,Pm-3m,0.0,True,True
mp-11257,SmAu,"Au, Sm",2,0.05170084499999916,Cubic,221,Pm-3m,0.0,False,True
mp-571188,Pr3Sn,"Pr, Sn",2,0.01989378986111312,Cubic,221,Pm-3m,0.0,False,True
mp-1198736,NdCd11,"Cd, Nd",2,0.0,Cubic,221,Pm-3m,0.0,False,True
mp-30825,PaRh3,"Pa, Rh",2,0.0,Cubic,221,Pm-3m,0.0,False,True
mp-495,LuGa3,"Ga, Lu",2,0.0,Cubic,221,Pm-3m,0.0,False,True
mp-2393,YTl3,"Tl, Y",2,0.0,Cubic,221,Pm-3m,0.0,False,True
mp-21253,EuMg,"Eu, Mg",2,0.016100730624998505,Cubic,221,Pm-3m,0.0,True,True
mp-19390,WO3,"O, W",2,0.007691435312500161,Cubic,221,Pm-3m,1.1124,False,False
mp-11478,GaAg,"Ag, Ga",2,0.08855271229166561,Cubic,221,Pm-3m,0.0,False,True
mp-11258,TbAu,"Au, Tb",2,0.04032489250000282,Cubic,221,Pm-3m,0.0,False,True
mp-569775,ZrAl3,"Al, Zr",2,0.021179049999998867,Cubic,221,Pm-3m,0.0,False,True
mp-1180,MnPt3,"Mn, Pt",2,0.0,Cubic,221,Pm-3m,0.0,False,True
mp-214,ZrRu,"Ru, Zr",2,0.0,Cubic,221,Pm-3m,0.0,False,True
mp-1183314,Ba3Ca,"Ba, Ca",2,0.04035435500000162,Cubic,221,Pm-3m,0.0,True,True
mp-1184995,La3Cd,"Cd, La",2,0.040731067499997664,Cubic,221,Pm-3m,0.0,True,True
mp-1913,ErPt3,"Er, Pt",2,0.0,Cubic,221,Pm-3m,0.0,False,True
mp-11276,BeRh,"Be, Rh",2,0.0,Cubic,221,Pm-3m,0.0,False,True
mp-1059,NdCd,"Cd, Nd",2,0.0,Cubic,221,Pm-3m,0.0,False,True