material_id,formula,elements,num_elements,energy_above_hull,crystal_system,spacegroup_number,spacegroup_symbol,band_gap,theoretical,is_metal
mp-639511,SiO2,"O, Si",2,0.021093187638889788,Tetragonal,139,I4/mmm,5.6703,True,False
mp-865562,Be3Ru,"Be, Ru",2,0.0,Tetragonal,139,I4/mmm,0.0,True,True
mp-1094293,Sr3Mg,"Mg, Sr",2,0.09364328874999983,Tetragonal,139,I4/mmm,0.0,True,True
mp-1104393,LuZn12,"Lu, Zn",2,0.0,Tetragonal,139,I4/mmm,0.0,False,True
mp-1185085,La3Zn,"La, Zn",2,0.09691990500000003,Tetragonal,139,I4/mmm,0.0,True,True
mp-28753,NdI2,"I, Nd",2,0.0,Tetragonal,139,I4/mmm,0.0,False,True
mp-1018131,LuAg2,"Ag, Lu",2,0.0,Tetragonal,139,I4/mmm,0.0,False,True
mp-973767,PmBi3,"Bi, Pm",2,0.0,Tetragonal,139,I4/mmm,0.0,True,True
mp-973508,KRb3,"K, Rb",2,0.02829872256250021,Tetragonal,139,I4/mmm,0.0,True,True
mp-1186711,Pr3Er,"Er, Pr",2,0.04343793541666585,Tetragonal,139,I4/mmm,0.0,True,True
mp-1080001,ZrGa3,"Ga, Zr",2,0.0,Tetragonal,139,I4/mmm,0.0,False,True
mp-9908,Ba2Sb,"Ba, Sb",2,0.02583598944444576,Tetragonal,139,I4/mmm,0.0,False,True
mp-30624,Dy11Sn10,"Dy, Sn",2,0.0,Tetragonal,139,I4/mmm,0.0,False,True
mp-634859,CaO2,"Ca, O",2,0.051879435000001806,Tetragonal,139,I4/mmm,2.7345,False,False
mp-1185836,MgAg3,"Ag, Mg",2,0.004001524999999617,Tetragonal,139,I4/mmm,0.0,True,True
mp-1186523,Pm3Nd,"Nd, Pm",2,0.020390064999997293,Tetragonal,139,I4/mmm,0.0,True,True
mp-12765,GdC2,"C, Gd",2,0.015514419583331218,Tetragonal,139,I4/mmm,0.0,False,True
mp-1187324,Tb3Th,"Tb, Th",2,0.047821665000000735,Tetragonal,139,I4/mmm,0.0,True,True
mp-1103919,CeMg12,"Ce, Mg",2,0.0,Tetragonal,139,I4/mmm,0.0,False,True
mp-978906,Sm3Dy,"Dy, Sm",2,0.026838033750003376,Tetragonal,139,I4/mmm,0.0,True,True
mp-1183195,Al3Ge,"Al, Ge",2,0.09748668375000058,Tetragonal,139,I4/mmm,0.0,True,True
mp-976417,Nd3Hg,"Hg, Nd",2,0.08078246624999963,Tetragonal,139,I4/mmm,0.0,True,True
mp-1201140,Tb11Sn10,"Sn, Tb",2,0.0,Tetragonal,139,I4/mmm,0.0,False,True
mp-1077718,NdO2,"Nd, O",2,0.08987573833333329,Tetragonal,139,I4/mmm,0.0,True,True
mp-1187288,SrEu3,"Eu, Sr",2,0.07616713124999563,Tetragonal,139,I4/mmm,0.0,True,True
mp-1183202,Ag3As,"Ag, As",2,0.09439199874999815,Tetragonal,139,I4/mmm,0.0,True,True
mp-1186622,PmP3,"P, Pm",2,0.0,Tetragonal,139,I4/mmm,0.0,True,True
mp-974925,NdY3,"Nd, Y",2,0.0737091456249992,Tetragonal,139,I4/mmm,0.0,True,True
mp-1213526,Dy11Ge10,"Dy, Ge",2,0.008617064880954928,Tetragonal,139,I4/mmm,0.0,True,True
mp-15624,Sr2Sb,"Sb, Sr",2,0.02989218611111344,Tetragonal,139,I4/mmm,0.0,False,True
mp-1184141,Dy3Lu,"Dy, Lu",2,0.0463119295833323,Tetragonal,139,I4/mmm,0.0,True,True
mp-639734,SiO2,"O, Si",2,0.021206486388889445,Tetragonal,139,I4/mmm,5.5098,True,False
mp-8093,Ba2Cd,"Ba, Cd",2,0.0,Tetragonal,139,I4/mmm,0.0,False,True
mp-1187946,ZnAg3,"Ag, Zn",2,0.006636417499997549,Tetragonal,139,I4/mmm,0.0,True,True
mp-1184119,CuPd3,"Cu, Pd",2,0.010750867499996986,Tetragonal,139,I4/mmm,0.0,True,True
mp-22481,KIn4,"In, K",2,0.0,Tetragonal,139,I4/mmm,0.0,False,True
mp-1620,Si2W,"Si, W",2,0.0,Tetragonal,139,I4/mmm,0.0,False,True
mp-1186151,NaLi3,"Li, Na",2,0.04319468749999977,Tetragonal,139,I4/mmm,0.0,True,True
mp-865425,ZnPd3,"Pd, Zn",2,0.011163510625002537,Tetragonal,139,I4/mmm,0.0,True,True
mp-865342,Zn3Rh,"Rh, Zn",2,0.0,Tetragonal,139,I4/mmm,0.0,True,True
mp-976047,Li3Hg,"Hg, Li",2,0.0,Tetragonal,139,I4/mmm,0.0,True,True
mp-1184493,In3Ag,"Ag, In",2,0.07299104673611012,Tetragonal,139,I4/mmm,0.0,True,True
mp-1185606,La3Ho,"Ho, La",2,0.03085265250000191,Tetragonal,139,I4/mmm,0.0,True,True
mp-2630,SrC2,"C, Sr",2,0.06219117777777683,Tetragonal,139,I4/mmm,1.6917000000000002,False,False
mp-1184536,GdBi3,"Bi, Gd",2,0.04046480250000073,Tetragonal,139,I4/mmm,0.0,True,True
mp-1187668,U3Ge,"Ge, U",2,0.06816464749999795,Tetragonal,139,I4/mmm,0.0,True,True
mp-1077063,La2Bi,"Bi, La",2,0.0,Tetragonal,139,I4/mmm,0.0,False,True
mp-1749,CaAl4,"Al, Ca",2,0.0,Tetragonal,139,I4/mmm,0.0,False,True
mp-980811,TmMn12,"Mn, Tm",2,0.0,Tetragonal,139,I4/mmm,0.0,False,True
mp-1077367,Ce2Bi,"Bi, Ce",2,0.0003278338888872412,Tetragonal,139,I4/mmm,0.0,False,True
mp-1104222,YFe12,"Fe, Y",2,0.02026528769230751,Tetragonal,139,I4/mmm,0.0,True,True
mp-971941,Zn3Ni,"Ni, Zn",2,0.028257140067568187,Tetragonal,139,I4/mmm,0.0,True,True
mp-1184178,Er3Pb,"Er, Pb",2,0.09206592625000098,Tetragonal,139,I4/mmm,0.0,True,True
mp-1187322,Tb3Y,"Tb, Y",2,0.04719229499999855,Tetragonal,139,I4/mmm,0.0,True,True
mp-1186746,PrBi3,"Bi, Pr",2,0.0011486824999975553,Tetragonal,139,I4/mmm,0.0,True,True
mp-984772,Ce3Zn,"Ce, Zn",2,0.06016621500000241,Tetragonal,139,I4/mmm,0.0,True,True
mp-567842,TaBe12,"Be, Ta",2,0.0,Tetragonal,139,I4/mmm,0.0,False,True
mp-1184904,In3Ga,"Ga, In",2,0.06514370000000014,Tetragonal,139,I4/mmm,0.0,True,True
mp-21109,LaAl4,"Al, La",2,0.006269143999999116,Tetragonal,139,I4/mmm,0.0,False,True
mp-1185124,LaNd3,"La, Nd",2,0.02264678812500165,Tetragonal,139,I4/mmm,0.0,True,True
mp-1039344,Sn3Bi,"Bi, Sn",2,0.09467945375000042,Tetragonal,139,I4/mmm,0.0,True,True
mp-1014303,Cr3N2,"Cr, N",2,0.08792594133333687,Tetragonal,139,I4/mmm,0.0,True,True
mp-976357,Lu3Sn,"Lu, Sn",2,0.07913680708333715,Tetragonal,139,I4/mmm,0.0,True,True
mp-1186633,PmSm3,"Pm, Sm",2,0.020715573124999054,Tetragonal,139,I4/mmm,0.0,True,True
mp-1183825,Dy3Zr,"Dy, Zr",2,0.09525903000000113,Tetragonal,139,I4/mmm,0.0,True,True
mp-2221,Zr2Ag,"Ag, Zr",2,0.0,Tetragonal,139,I4/mmm,0.0,False,True
mp-974358,Ir3Ru,"Ir, Ru",2,0.0,Tetragonal,139,I4/mmm,0.0,True,True
mp-1187555,Tl3Cd,"Cd, Tl",2,0.06732396249999795,Tetragonal,139,I4/mmm,0.0,True,True
mp-1186972,Sc3Nb,"Nb, Sc",2,0.09973555375000132,Tetragonal,139,I4/mmm,0.0,True,True
mp-971948,Zn3Co,"Co, Zn",2,0.01751606715909304,Tetragonal,139,I4/mmm,0.0,True,True
mp-32565,Tb4H9,"H, Tb",2,0.0031571835897459266,Tetragonal,139,I4/mmm,0.0,True,True
mp-1183998,Ga3Tc,"Ga, Tc",2,0.0,Tetragonal,139,I4/mmm,0.0,True,True
mp-867780,Al3Cr,"Al, Cr",2,0.0,Tetragonal,139,I4/mmm,0.0,True,True
mp-1185170,La3Lu,"La, Lu",2,0.028703077083335415,Tetragonal,139,I4/mmm,0.0,True,True
mp-1186822,Pu3Th,"Pu, Th",2,0.08660789999998997,Tetragonal,139,I4/mmm,0.0,True,True
mp-975904,Li3Cd,"Cd, Li",2,0.0,Tetragonal,139,I4/mmm,0.0,True,True
mp-1185119,K3Rb,"K, Rb",2,0.03787729768750081,Tetragonal,139,I4/mmm,0.0,True,True
mp-1187951,ZnCo3,"Co, Zn",2,0.07635885352272709,Tetragonal,139,I4/mmm,0.0,True,True
mp-1018104,Zr2Cd,"Cd, Zr",2,0.0,Tetragonal,139,I4/mmm,0.0,False,True
mp-982881,PmTm3,"Pm, Tm",2,0.056561868749994915,Tetragonal,139,I4/mmm,0.0,True,True
mp-1094320,SrMg3,"Mg, Sr",2,0.07225729624999988,Tetragonal,139,I4/mmm,0.0,True,True
mp-1187316,Tb3Sc,"Sc, Tb",2,0.06405359624999818,Tetragonal,139,I4/mmm,0.0,True,True
mp-1186350,NiIr3,"Ir, Ni",2,0.011985112499992567,Tetragonal,139,I4/mmm,0.0,True,True
mp-1186415,PaTc3,"Pa, Tc",2,0.04522195124999939,Tetragonal,139,I4/mmm,0.0,True,True
mp-30599,Ti2Cu3,"Cu, Ti",2,0.040680273499999586,Tetragonal,139,I4/mmm,0.0,False,True
mp-1184704,HfCu3,"Cu, Hf",2,0.07249532007622062,Tetragonal,139,I4/mmm,0.0,True,True
mp-1070103,Hf2Pt3,"Hf, Pt",2,0.008496287749991893,Tetragonal,139,I4/mmm,0.0,False,True
mp-1183087,Ac3Lu,"Ac, Lu",2,0.07435272562500472,Tetragonal,139,I4/mmm,0.0,True,True
mp-977385,NpH3,"H, Np",2,0.0,Tetragonal,139,I4/mmm,0.0,True,True
mp-31379,Zr2Sb,"Sb, Zr",2,0.0,Tetragonal,139,I4/mmm,0.0,False,True
mp-1184743,GdHo3,"Gd, Ho",2,0.06504997374999988,Tetragonal,139,I4/mmm,0.0,True,True
mp-1184028,Cu3Rh,"Cu, Rh",2,0.03886744999999969,Tetragonal,139,I4/mmm,0.0,True,True
mp-1184425,Ga3Pb,"Ga, Pb",2,0.09109193937500137,Tetragonal,139,I4/mmm,0.0,True,True
mp-1185771,Mg2Pd,"Mg, Pd",2,0.00699139305555585,Tetragonal,139,I4/mmm,0.0,True,True
mp-1070580,Al3Ru2,"Al, Ru",2,0.0,Tetragonal,139,I4/mmm,0.0,False,True
mp-865985,CdPd3,"Cd, Pd",2,0.0,Tetragonal,139,I4/mmm,0.0,True,True
mp-1187647,Tm3Sn,"Sn, Tm",2,0.08946591583332975,Tetragonal,139,I4/mmm,0.0,True,True
mp-555,Fe8N,"Fe, N",2,0.0010915550000003549,Tetragonal,139,I4/mmm,0.0,False,True
mp-1184772,Hf3Pb,"Hf, Pb",2,0.0,Tetragonal,139,I4/mmm,0.0,True,True
mp-865900,Ti3Tl,"Ti, Tl",2,0.0,Tetragonal,139,I4/mmm,0.0,True,True
mp-555211,SiO2,"O, Si",2,0.019635544097223345,Tetragonal,139,I4/mmm,5.6207,True,False
mp-1183256,AgPb3,"Ag, Pb",2,0.08509275833333874,Tetragonal,139,I4/mmm,0.0,True,True
mp-1187844,Zr3Pb,"Pb, Zr",2,0.03697422375000414,Tetragonal,139,I4/mmm,0.0,True,True
mp-976025,Li3Ga,"Ga, Li",2,0.03374456333333331,Tetragonal,139,I4/mmm,0.0,True,True
mp-1078721,InPd3,"In, Pd",2,0.0,Tetragonal,139,I4/mmm,0.0,False,True
mp-976106,Hf3Tl,"Hf, Tl",2,0.0,Tetragonal,139,I4/mmm,0.0,True,True
mp-30776,PrMg12,"Mg, Pr",2,0.020798581923076265,Tetragonal,139,I4/mmm,0.0,False,True
mp-12693,Mg2Rh,"Mg, Rh",2,0.0,Tetragonal,139,I4/mmm,0.0,False,True
mp-30339,ErAg2,"Ag, Er",2,0.0,Tetragonal,139,I4/mmm,0.0,False,True
mp-985557,Ce3Dy,"Ce, Dy",2,0.0950404162500007,Tetragonal,139,I4/mmm,0.0,True,True
mp-1018102,ZrPd2,"Pd, Zr",2,0.006719121666666439,Tetragonal,139,I4/mmm,0.0,False,True
mp-1185848,MgAu3,"Au, Mg",2,0.011777831999997268,Tetragonal,139,I4/mmm,0.0,True,True
mp-976971,NaPd3,"Na, Pd",2,0.00025291500000079736,Tetragonal,139,I4/mmm,0.0,True,True
mp-1187819,YBi3,"Bi, Y",2,0.07156671249999924,Tetragonal,139,I4/mmm,0.0,True,True
mp-865168,Be3Ni,"Be, Ni",2,0.0,Tetragonal,139,I4/mmm,0.0,True,True
mp-22508,YMn12,"Mn, Y",2,0.07102309124668515,Tetragonal,139,I4/mmm,0.0,False,True
mp-972607,SmHo3,"Ho, Sm",2,0.047226348750001534,Tetragonal,139,I4/mmm,0.0,True,True
mp-22859,HgI,"Hg, I",2,0.0,Tetragonal,139,I4/mmm,1.6426000000000003,False,False
mp-1094771,MgCd3,"Cd, Mg",2,0.03625157041666682,Tetragonal,139,I4/mmm,0.0,True,True
mp-22678,Ce2Sb,"Ce, Sb",2,0.0,Tetragonal,139,I4/mmm,0.0,False,True
mp-1185160,La3Tm,"La, Tm",2,0.03100143125000443,Tetragonal,139,I4/mmm,0.0,True,True
mp-8094,Ba2Hg,"Ba, Hg",2,0.0,Tetragonal,139,I4/mmm,0.0,False,True
mp-976281,Li3Pd,"Li, Pd",2,0.0029711416071425134,Tetragonal,139,I4/mmm,0.0,True,True
mp-1078602,ZrIn3,"In, Zr",2,0.0032203587499992636,Tetragonal,139,I4/mmm,0.0,False,True
mp-1183650,CdHg3,"Cd, Hg",2,0.03757884187500338,Tetragonal,139,I4/mmm,0.0,True,True
mp-1186031,Na3Cd,"Cd, Na",2,0.0041281600000004914,Tetragonal,139,I4/mmm,0.0,True,True
mp-1186728,Pr3Sc,"Pr, Sc",2,0.06945479000000176,Tetragonal,139,I4/mmm,0.0,True,True
mp-865194,TmF3,"F, Tm",2,0.0,Tetragonal,139,I4/mmm,5.3798,True,False
mp-862716,LiAg3,"Ag, Li",2,0.0,Tetragonal,139,I4/mmm,0.0,True,True
mp-193,Zr2Cu,"Cu, Zr",2,0.0,Tetragonal,139,I4/mmm,0.0,False,True
mp-1226890,Ce4H11,"Ce, H",2,0.0,Tetragonal,139,I4/mmm,0.0,True,True
mp-1186719,Pr3Ho,"Ho, Pr",2,0.03892768250000245,Tetragonal,139,I4/mmm,0.0,True,True
mp-982065,PrHo3,"Ho, Pr",2,0.0524474958333343,Tetragonal,139,I4/mmm,0.0,True,True
mp-982448,Pm3Y,"Pm, Y",2,0.03813375937500041,Tetragonal,139,I4/mmm,0.0,True,True
mp-1104792,MnBe12,"Be, Mn",2,0.0,Tetragonal,139,I4/mmm,0.0,False,True
mp-1205360,CaGe3,"Ca, Ge",2,0.0909854025000012,Tetragonal,139,I4/mmm,0.0,False,True
mp-22885,XeF2,"F, Xe",2,0.0,Tetragonal,139,I4/mmm,2.6861999999999995,False,False
mp-978280,Mg3Ga,"Ga, Mg",2,0.04801992249999998,Tetragonal,139,I4/mmm,0.0,True,True
mp-2768,Ba2As,"As, Ba",2,0.06947440410256478,Tetragonal,139,I4/mmm,0.0,False,True
mp-1183841,DyHo3,"Dy, Ho",2,0.05192420250000396,Tetragonal,139,I4/mmm,0.0,True,True
mp-1184006,GaCo3,"Co, Ga",2,0.061543802499999245,Tetragonal,139,I4/mmm,0.0,True,True
mp-865355,Zn3Pt,"Pt, Zn",2,0.0,Tetragonal,139,I4/mmm,0.0,True,True
mp-1185223,LaTb3,"La, Tb",2,0.04648104874999959,Tetragonal,139,I4/mmm,0.0,True,True
mp-1183782,Ce3Sm,"Ce, Sm",2,0.09701330249999884,Tetragonal,139,I4/mmm,0.0,True,True
mp-978283,Mg3In,"In, Mg",2,0.01696658250000027,Tetragonal,139,I4/mmm,0.0,True,True
mp-1185200,Li3Au,"Au, Li",2,0.004172272499999963,Tetragonal,139,I4/mmm,0.0,True,True
mp-1186735,Pr3Y,"Pr, Y",2,0.04460714125000109,Tetragonal,139,I4/mmm,0.0,True,True
mp-2706,SnF4,"F, Sn",2,0.0,Tetragonal,139,I4/mmm,3.1149999999999998,False,False
mp-972912,La3Er,"Er, La",2,0.03469065791666637,Tetragonal,139,I4/mmm,0.0,True,True
mp-1183095,Ac3La,"Ac, La",2,0.032081053125004644,Tetragonal,139,I4/mmm,0.0,True,True
mp-972908,La3Dy,"Dy, La",2,0.03004708250000121,Tetragonal,139,I4/mmm,0.0,True,True
mp-1184001,GaCu3,"Cu, Ga",2,0.0038695449999988085,Tetragonal,139,I4/mmm,0.0,True,True
mp-11241,DyAu2,"Au, Dy",2,0.0,Tetragonal,139,I4/mmm,0.0,False,True
mp-971831,Tm3Th,"Th, Tm",2,0.04135281249999423,Tetragonal,139,I4/mmm,0.0,True,True
mp-9994,Ho11Ge10,"Ge, Ho",2,0.010866658214284008,Tetragonal,139,I4/mmm,0.0,False,True
mp-1018178,Ba2Zn,"Ba, Zn",2,0.0,Tetragonal,139,I4/mmm,0.0,False,True
mp-571030,TlPd3,"Pd, Tl",2,0.00558058374999959,Tetragonal,139,I4/mmm,0.0,False,True
mp-1834,NdAl4,"Al, Nd",2,0.05913440599999831,Tetragonal,139,I4/mmm,0.0,False,True
mp-1018105,Zr2Zn,"Zn, Zr",2,0.016274941666665654,Tetragonal,139,I4/mmm,0.0,False,True
mp-971779,ZnRh3,"Rh, Zn",2,0.01551501249999987,Tetragonal,139,I4/mmm,0.0,True,True
mp-865362,Zn3Ir,"Ir, Zn",2,0.0,Tetragonal,139,I4/mmm,0.0,True,True
mp-1441,CsO2,"Cs, O",2,0.0029190833333352373,Tetragonal,139,I4/mmm,0.0,False,True
mp-982871,Na3Pt,"Na, Pt",2,0.08830301215517089,Tetragonal,139,I4/mmm,0.0,True,True
mp-1187256,TaTi3,"Ta, Ti",2,0.09748567999999835,Tetragonal,139,I4/mmm,0.0,True,True
mp-30614,ErZn12,"Er, Zn",2,0.0,Tetragonal,139,I4/mmm,0.0,False,True
mp-973092,ScCu3,"Cu, Sc",2,0.03170728749999974,Tetragonal,139,I4/mmm,0.0,True,True
mp-23194,LaI2,"I, La",2,0.0,Tetragonal,139,I4/mmm,0.0,False,True
mp-1207826,Y11Ge10,"Ge, Y",2,0.013947730595241126,Tetragonal,139,I4/mmm,0.0,True,True
mp-582799,EuAl4,"Al, Eu",2,0.0,Tetragonal,139,I4/mmm,0.0,False,True
mp-2348,Zr2Au,"Au, Zr",2,0.0,Tetragonal,139,I4/mmm,0.0,False,True
mp-1185266,LiNi3,"Li, Ni",2,0.062328318333333854,Tetragonal,139,I4/mmm,0.0,True,True
mp-1079997,VPt8,"Pt, V",2,0.0,Tetragonal,139,I4/mmm,0.0,False,True
mp-1205768,ZrPt8,"Pt, Zr",2,0.0,Tetragonal,139,I4/mmm,0.0,True,True
mp-1185112,La3Pm,"La, Pm",2,0.023893924375002484,Tetragonal,139,I4/mmm,0.0,True,True
mp-1183303,BaF3,"Ba, F",2,0.0,Tetragonal,139,I4/mmm,0.0,True,True
mp-31221,ThMn12,"Mn, Th",2,0.00797272114058245,Tetragonal,139,I4/mmm,0.0,False,True
mp-1094171,La3Mg,"La, Mg",2,0.04405594625000031,Tetragonal,139,I4/mmm,0.0,True,True
mp-1891,SmAl4,"Al, Sm",2,0.06975841000000038,Tetragonal,139,I4/mmm,0.0,False,True
mp-980060,TbAg3,"Ag, Tb",2,0.041903996630434204,Tetragonal,139,I4/mmm,0.0,True,True
mp-1183647,CdAg3,"Ag, Cd",2,0.0,Tetragonal,139,I4/mmm,0.0,True,True
mp-1094220,Hf3Mg,"Hf, Mg",2,0.08607279625000164,Tetragonal,139,I4/mmm,0.047099999999999476,True,False
mp-1187474,Ti3Zn,"Ti, Zn",2,0.011189639166667043,Tetragonal,139,I4/mmm,0.0,True,True
mp-1184357,EuAg3,"Ag, Eu",2,0.09099922666666771,Tetragonal,139,I4/mmm,0.0,True,True
mp-1186512,Pm3Hg,"Hg, Pm",2,0.004535990000000822,Tetragonal,139,I4/mmm,0.0,True,True
mp-975887,PrNd3,"Nd, Pr",2,0.022200343958335367,Tetragonal,139,I4/mmm,0.0,True,True
mp-1222990,La4Mg,"La, Mg",2,0.022756189999999954,Tetragonal,139,I4/mmm,0.0,True,True
mp-1104493,TbZn12,"Tb, Zn",2,0.0,Tetragonal,139,I4/mmm,0.0,False,True
mp-972828,Cu3Si,"Cu, Si",2,0.034248433249999266,Tetragonal,139,I4/mmm,0.0,True,True
mp-1183356,Ba3Na,"Ba, Na",2,0.07501271854166691,Tetragonal,139,I4/mmm,0.0,True,True
mp-1184054,CuNi3,"Cu, Ni",2,0.0430200825,Tetragonal,139,I4/mmm,0.0,True,True
mp-2466,ErAu2,"Au, Er",2,0.0,Tetragonal,139,I4/mmm,0.0,False,True
mp-1186737,Pr3Th,"Pr, Th",2,0.08270493124999945,Tetragonal,139,I4/mmm,0.0,True,True
mp-1183746,Ce3Hg,"Ce, Hg",2,0.04950650749999852,Tetragonal,139,I4/mmm,0.0,True,True
mp-1183342,Ba3Ca,"Ba, Ca",2,0.03921404749999979,Tetragonal,139,I4/mmm,0.0,True,True
mp-1063174,GdAu2,"Au, Gd",2,0.0,Tetragonal,139,I4/mmm,0.0,False,True
mp-974430,Re3Ir,"Ir, Re",2,0.01332998000000174,Tetragonal,139,I4/mmm,0.0,True,True
mp-1094961,Mg3Al,"Al, Mg",2,0.045159970520833426,Tetragonal,139,I4/mmm,0.0,True,True
mp-977264,Pm2Mg,"Mg, Pm",2,0.017991257499997637,Tetragonal,139,I4/mmm,0.0,True,True
mp-1185927,MgPd3,"Mg, Pd",2,0.009281103749993136,Tetragonal,139,I4/mmm,0.0,True,True
mp-10564,SrN2,"N, Sr",2,0.0,Tetragonal,139,I4/mmm,0.0,False,True
mp-570197,Bi2Pd,"Bi, Pd",2,0.048686823333336626,Tetragonal,139,I4/mmm,0.0,False,True
mp-12241,Ca11Sb10,"Ca, Sb",2,0.0,Tetragonal,139,I4/mmm,0.0,False,True
mp-1009834,Al2Ru,"Al, Ru",2,0.019733673333332646,Tetragonal,139,I4/mmm,0.0,False,True
mp-972069,Ti3Ga,"Ga, Ti",2,0.012396137499999682,Tetragonal,139,I4/mmm,0.0,True,True
mp-1104551,DyZn12,"Dy, Zn",2,0.0,Tetragonal,139,I4/mmm,0.0,False,True
mp-978849,Sm3Mg,"Mg, Sm",2,0.059754649999999465,Tetragonal,139,I4/mmm,0.0,True,True
mp-1186635,PmPr3,"Pm, Pr",2,0.030035771875002837,Tetragonal,139,I4/mmm,0.0,True,True
mp-1186034,Na3Ag,"Ag, Na",2,0.08352711062500084,Tetragonal,139,I4/mmm,0.0,True,True
mp-1018179,AlAu2,"Al, Au",2,0.015901574166669263,Tetragonal,139,I4/mmm,0.0,False,True
mp-974862,Rb3Na,"Na, Rb",2,0.05640515403017199,Tetragonal,139,I4/mmm,0.0,True,True
mp-1183620,CaEu3,"Ca, Eu",2,0.0462514837499981,Tetragonal,139,I4/mmm,0.0,True,True
mp-974738,KSr3,"K, Sr",2,0.09926039425000077,Tetragonal,139,I4/mmm,0.0,True,True
mp-974616,Pt3Rh,"Pt, Rh",2,0.0,Tetragonal,139,I4/mmm,0.0,True,True
mp-1186671,PmY3,"Pm, Y",2,0.07323825312499821,Tetragonal,139,I4/mmm,0.0,True,True
mp-30383,Hf2Au,"Au, Hf",2,0.0,Tetragonal,139,I4/mmm,0.0,False,True
mp-1188030,Zr3Cd,"Cd, Zr",2,0.020268713749995726,Tetragonal,139,I4/mmm,0.0,True,True
mp-1185253,LiTl3,"Li, Tl",2,0.046669947499999864,Tetragonal,139,I4/mmm,0.0,True,True
mp-12105,RbO2,"O, Rb",2,0.0,Tetragonal,139,I4/mmm,0.0,False,True
mp-1187019,Se3Br,"Br, Se",2,0.001964325341797135,Tetragonal,139,I4/mmm,0.0,True,True
mp-1206229,Sm2Bi,"Bi, Sm",2,0.025388103333328083,Tetragonal,139,I4/mmm,0.0,True,True
mp-30358,TbAg2,"Ag, Tb",2,0.0,Tetragonal,139,I4/mmm,0.0,False,True
mp-1185879,MgHg3,"Hg, Mg",2,0.04700923624999653,Tetragonal,139,I4/mmm,0.0,True,True
mp-1135,NbPd3,"Nb, Pd",2,0.004146504166666176,Tetragonal,139,I4/mmm,0.0,False,True
mp-1186584,PmHo3,"Ho, Pm",2,0.04409954687500317,Tetragonal,139,I4/mmm,0.0,True,True
mp-13452,BePd2,"Be, Pd",2,0.0,Tetragonal,139,I4/mmm,0.0,False,True
mp-971832,ZnIn3,"In, Zn",2,0.09154063250000277,Tetragonal,139,I4/mmm,0.0,True,True
mp-1179454,SiO2,"O, Si",2,0.0188390738888895,Tetragonal,139,I4/mmm,5.5301,True,False
mp-30305,Sr11Bi10,"Bi, Sr",2,0.0,Tetragonal,139,I4/mmm,0.0,False,True
mp-1181275,La11Sn10,"La, Sn",2,0.0,Tetragonal,139,I4/mmm,0.0,True,True
mp-1183813,CeTm3,"Ce, Tm",2,0.08328868124999644,Tetragonal,139,I4/mmm,0.0,True,True
mp-981547,PrH3,"H, Pr",2,0.0,Tetragonal,139,I4/mmm,0.1572,True,False
mp-1183081,Ac3Dy,"Ac, Dy",2,0.06687583312499612,Tetragonal,139,I4/mmm,0.0,True,True
mp-29619,Sr2Bi,"Bi, Sr",2,0.025634754166659057,Tetragonal,139,I4/mmm,0.0,False,True
mp-1100766,Ni3Pt,"Ni, Pt",2,0.00030011249999972733,Tetragonal,139,I4/mmm,0.0,True,True
mp-14015,HoMn12,"Ho, Mn",2,0.0,Tetragonal,139,I4/mmm,0.0,False,True
mp-1187405,Th3Cd,"Cd, Th",2,0.06021270749999985,Tetragonal,139,I4/mmm,0.0,True,True
mp-2775,SrAl4,"Al, Sr",2,0.0,Tetragonal,139,I4/mmm,0.0,False,True
mp-976408,Li3Ag,"Ag, Li",2,0.0013151149999997003,Tetragonal,139,I4/mmm,0.0,True,True
mp-1183345,Ba3Sr,"Ba, Sr",2,0.01627151249999992,Tetragonal,139,I4/mmm,0.0,True,True
mp-1183083,Ac3Y,"Ac, Y",2,0.058625999375003346,Tetragonal,139,I4/mmm,0.0,True,True
mp-11387,HfGa3,"Ga, Hf",2,0.0,Tetragonal,139,I4/mmm,0.0,False,True
mp-29635,PuGa,"Ga, Pu",2,0.0,Tetragonal,139,I4/mmm,0.0,False,True
mp-1203572,Er11Ge10,"Er, Ge",2,0.009564279285712907,Tetragonal,139,I4/mmm,0.0,False,True
mp-1186517,Pm3Mg,"Mg, Pm",2,0.056208078750001,Tetragonal,139,I4/mmm,0.0,True,True
mp-1094249,MgSn3,"Mg, Sn",2,0.05558609437500195,Tetragonal,139,I4/mmm,0.0,True,True
mp-1186244,PmNd3,"Nd, Pm",2,0.019321415000000286,Tetragonal,139,I4/mmm,0.0,True,True
mp-1207004,HfPd2,"Hf, Pd",2,0.0,Tetragonal,139,I4/mmm,0.0,True,True
mp-1190013,TiNi,"Ni, Ti",2,0.03457125624999957,Tetragonal,139,I4/mmm,0.0,False,True
mp-1104067,TiBe12,"Be, Ti",2,0.0,Tetragonal,139,I4/mmm,0.0,False,True
mp-861653,ThH3,"H, Th",2,0.07178858625000473,Tetragonal,139,I4/mmm,0.0,True,True