material_id,formula,elements,num_elements,energy_above_hull,crystal_system,spacegroup_number,spacegroup_symbol,band_gap,theoretical,is_metal
mp-27213,AuBr3,"Au, Br",2,0.0,Monoclinic,14,P2_1/c,0.7497,False,False
mp-1367785,WF5,"F, W",2,0.01552909458333307,Monoclinic,14,P2_1/c,2.9429,True,False
mp-863400,VF4,"F, V",2,0.021301150999999408,Monoclinic,14,P2_1/c,1.7416,True,False
mp-540625,GeSe2,"Ge, Se",2,0.0,Monoclinic,14,P2_1/c,1.4381000000000002,False,False
mp-1195,Ba3P14,"Ba, P",2,0.0,Monoclinic,14,P2_1/c,1.7751000000000001,False,False
mp-1195383,As2O3,"As, O",2,0.006129172333332988,Monoclinic,14,P2_1/c,3.3787000000000003,False,False
mp-734250,KO2,"K, O",2,0.07542686916666685,Monoclinic,14,P2_1/c,0.0,True,True
mp-909,As2Se3,"As, Se",2,0.0,Monoclinic,14,P2_1/c,1.4466,False,False
mp-771699,Sb2O5,"O, Sb",2,0.041562888214286886,Monoclinic,14,P2_1/c,0.9887000000000001,True,False
mp-1203591,TcI4,"I, Tc",2,0.0,Monoclinic,14,P2_1/c,0.0,True,True
mp-706664,B10H13,"B, H",2,0.005489127574727526,Monoclinic,14,P2_1/c,3.3079,False,False
mp-1103226,TbS2,"S, Tb",2,0.0,Monoclinic,14,P2_1/c,0.31479999999999997,False,False
mp-1771,NO2,"N, O",2,0.0015355588888885663,Monoclinic,14,P2_1/c,2.7046,False,False
mp-20078,Pb2O3,"O, Pb",2,0.0052394237499981955,Monoclinic,14,P2_1/c,1.0748999999999995,False,False
mp-573425,Y8Co5,"Co, Y",2,0.0012234444230774244,Monoclinic,14,P2_1/c,0.0,False,True
mp-571264,Ca5Au4,"Au, Ca",2,0.0,Monoclinic,14,P2_1/c,0.0,False,True
mp-571011,CsI4,"Cs, I",2,0.0,Monoclinic,14,P2_1/c,1.7836,False,False
mp-753574,MnF4,"F, Mn",2,0.060740339999999726,Monoclinic,14,P2_1/c,0.1966000000000001,True,False
mp-27164,FeP4,"Fe, P",2,0.005661479499998734,Monoclinic,14,P2_1/c,0.7014000000000014,False,False
mp-927,CuP2,"Cu, P",2,0.0,Monoclinic,14,P2_1/c,0.8679000000000006,False,False
mp-31487,NbI5,"I, Nb",2,0.016002737916669396,Monoclinic,14,P2_1/c,0.5982999999999998,False,False
mp-567604,GeBr4,"Br, Ge",2,0.0009764702499985844,Monoclinic,14,P2_1/c,2.9329,False,False
mp-562412,Ag3F8,"Ag, F",2,0.0,Monoclinic,14,P2_1/c,0.30689999999999995,False,False
mp-1197128,Bi2O3,"Bi, O",2,0.01564853900000074,Monoclinic,14,P2_1/c,2.4549000000000003,False,False
mp-1087509,P4Os,"Os, P",2,0.017022060666668892,Monoclinic,14,P2_1/c,0.6720999999999995,False,False
mp-30086,GeCl4,"Cl, Ge",2,0.0,Monoclinic,14,P2_1/c,4.1525,False,False
mp-1205345,Sb2O3,"O, Sb",2,0.018393840500003478,Monoclinic,14,P2_1/c,2.5073,True,False
mp-2287,SiRh,"Rh, Si",2,0.02456185499999819,Monoclinic,14,P2_1/c,0.0,False,True
mp-1106381,NaAs,"As, Na",2,0.0,Monoclinic,14,P2_1/c,0.5907,False,False
mp-1120759,PdSe2,"Pd, Se",2,0.055481607499999086,Monoclinic,14,P2_1/c,1.3767,True,False
mp-778252,V5O12,"O, V",2,0.010014992352941121,Monoclinic,14,P2_1/c,1.0797,True,False
mp-669426,SiO2,"O, Si",2,0.007127133888889858,Monoclinic,14,P2_1/c,5.537999999999999,False,False
mp-560366,XeF6,"F, Xe",2,0.0,Monoclinic,14,P2_1/c,2.7851,False,False
mp-1392,ZnP2,"P, Zn",2,0.0011486687499999704,Monoclinic,14,P2_1/c,0.7480000000000002,False,False
mp-776041,V2O5,"O, V",2,0.0341744300000002,Monoclinic,14,P2_1/c,2.08,True,False
mp-556328,AsS,"As, S",2,0.02471794281249906,Monoclinic,14,P2_1/c,1.9798000000000002,False,False
mp-1214789,BSe2,"B, Se",2,0.0,Monoclinic,14,P2_1/c,1.7712,True,False
mp-1105095,BaP2,"Ba, P",2,0.0,Monoclinic,14,P2_1/c,0.5585999999999993,False,False
mp-1102408,PrAs2,"As, Pr",2,0.01262491166666635,Monoclinic,14,P2_1/c,0.048200000000000465,False,False
mp-16922,Ba2Sb3,"Ba, Sb",2,0.0,Monoclinic,14,P2_1/c,0.2850999999999999,False,False
mp-2913080,BiBr3,"Bi, Br",2,0.0,Monoclinic,14,P2_1/c,2.8833,True,False
mp-610517,Ag2S,"Ag, S",2,0.029025886666666167,Monoclinic,14,P2_1/c,1.0006999999999997,False,False
mp-558149,BF3,"B, F",2,0.0013903446875005443,Monoclinic,14,P2_1/c,8.2939,False,False
mp-504902,SiBr2,"Br, Si",2,0.039190582874999436,Monoclinic,14,P2_1/c,2.6904,False,False
mp-12003,Al9Ir2,"Al, Ir",2,0.0,Monoclinic,14,P2_1/c,0.0,False,True
mp-1232221,PmSe2,"Pm, Se",2,0.0,Monoclinic,14,P2_1/c,0.0,True,True
mp-1095479,GdS2,"Gd, S",2,0.005439691239583766,Monoclinic,14,P2_1/c,0.1922000000000006,False,False
mp-610430,BiBr3,"Bi, Br",2,0.061744708750000044,Monoclinic,14,P2_1/c,2.5189000000000004,False,False
mp-1102055,LaAs2,"As, La",2,0.0,Monoclinic,14,P2_1/c,0.18400000000000016,False,False
mp-28366,Gd2B5,"B, Gd",2,0.0,Monoclinic,14,P2_1/c,0.0,False,True
mp-1189507,CsO3,"Cs, O",2,0.08244887781249943,Monoclinic,14,P2_1/c,0.9415,False,False
mp-1199938,P2S7,"P, S",2,0.0,Monoclinic,14,P2_1/c,2.1425,False,False
mp-30967,Tb12Co7,"Co, Tb",2,0.0,Monoclinic,14,P2_1/c,0.0,False,True
mp-1205372,VCl4,"Cl, V",2,0.0,Monoclinic,14,P2_1/c,0.0,False,True
mp-1232276,PmS2,"Pm, S",2,0.0,Monoclinic,14,P2_1/c,0.4328000000000003,True,False
mp-27276,Si12Ni31,"Ni, Si",2,0.00236102901162738,Trigonal,150,P321,0.0,False,True
mp-1103295,AlF3,"Al, F",2,0.002904201249999794,Trigonal,150,P321,7.4257,False,False
mp-14112,PdF3,"F, Pd",2,0.048589077500000855,Trigonal,150,P321,0.0,False,True
mp-1974948,Na2O,"Na, O",2,0.07367914777777784,Trigonal,150,P321,1.6260000000000001,True,False
mp-569049,Al5Mo,"Al, Mo",2,0.0018279855000002954,Trigonal,150,P321,0.0,False,True
mp-766789,MnF3,"F, Mn",2,0.03162759375000057,Trigonal,150,P321,0.5381,True,False
mp-765633,MnF3,"F, Mn",2,0.051257738749998616,Trigonal,150,P321,0.2629,True,False
mp-1181398,FeF3,"F, Fe",2,0.049932257500000965,Trigonal,150,P321,3.0517,False,False
mp-752989,Ti8O13,"O, Ti",2,0.03211704011904537,Trigonal,148,R-3,0.1144999999999996,True,False
mp-1104495,La3Rh2,"La, Rh",2,0.006688662777777132,Trigonal,148,R-3,0.0,False,True
mp-1224444,Hf2Te3,"Hf, Te",2,0.018905087999996795,Trigonal,148,R-3,0.0,True,True
mp-1104388,Y3Pd2,"Pd, Y",2,0.012317507583336607,Trigonal,148,R-3,0.0,False,True
mp-12712,Zr3Pd4,"Pd, Zr",2,0.00891687785714268,Trigonal,148,R-3,0.0,False,True
mp-1104199,Nd3Pd4,"Nd, Pd",2,0.0,Trigonal,148,R-3,0.0,False,True
mp-23275,TiCl3,"Cl, Ti",2,0.0278188362500007,Trigonal,148,R-3,0.0,False,True
mp-21021,Mo3Se4,"Mo, Se",2,0.06087143499999925,Trigonal,148,R-3,0.0,False,True
mp-1250639,SiO2,"O, Si",2,0.009238702194442894,Trigonal,148,R-3,5.6677,True,False
mp-1105286,Eu3Pd2,"Eu, Pd",2,0.0,Trigonal,148,R-3,0.0,False,True
mp-1101826,Ir3S8,"Ir, S",2,0.0,Trigonal,148,R-3,0.0,False,True
mp-23165,PtBr3,"Br, Pt",2,0.0,Trigonal,148,R-3,0.9518000000000001,False,False
mp-567653,Ti3Ni4,"Ni, Ti",2,0.007696926964285922,Trigonal,148,R-3,0.0,False,True
mp-22083,Tb7O12,"O, Tb",2,0.058204941447367986,Trigonal,148,R-3,0.0,False,True
mp-1104457,Eu3Au2,"Au, Eu",2,0.0,Trigonal,148,R-3,0.0,False,True
mp-30357,Sr3Ag2,"Ag, Sr",2,0.003260875199998736,Trigonal,148,R-3,0.0,False,True
mp-1104877,Lu3Pt4,"Lu, Pt",2,0.0,Trigonal,148,R-3,0.0,False,True
mp-1217180,Ti2Te3,"Te, Ti",2,0.004200590500001766,Trigonal,148,R-3,0.0,True,True
mp-685155,ZrCl3,"Cl, Zr",2,0.07107212499999882,Trigonal,148,R-3,0.0,True,True
mp-17659,Mg23Al30,"Al, Mg",2,0.0007062855660371348,Trigonal,148,R-3,0.0,False,True
mp-2426125,Mg9Sn5,"Mg, Sn",2,0.002168677321428003,Trigonal,148,R-3,0.0,True,True
mp-17391,Sm3Rh2,"Rh, Sm",2,0.0,Trigonal,148,R-3,0.0,False,True
mp-21965,V8Ga41,"Ga, V",2,0.0,Trigonal,148,R-3,0.008599999999999497,False,False
mp-1104664,Dy3Pt4,"Dy, Pt",2,0.0,Trigonal,148,R-3,0.0,False,True
mp-1104814,Ho3Ni2,"Ho, Ni",2,0.018187644833335348,Trigonal,148,R-3,0.0,False,True
mp-865377,Th3Au4,"Au, Th",2,0.0,Trigonal,148,R-3,0.0,False,True
mp-1105001,Tm3Pt4,"Pt, Tm",2,0.0,Trigonal,148,R-3,0.0,False,True
mp-31134,PtCl3,"Cl, Pt",2,0.0,Trigonal,148,R-3,1.0698,False,False
mp-23309,ScCl3,"Cl, Sc",2,0.0,Trigonal,148,R-3,3.8723,False,False
mp-867575,Mn7F16,"F, Mn",2,0.039777096956521873,Trigonal,148,R-3,1.05,True,False
mp-22671,Pr7O12,"O, Pr",2,0.09667332694078823,Trigonal,148,R-3,0.0,False,True
mp-765724,VF4,"F, V",2,0.04069712466666786,Trigonal,148,R-3,0.7376999999999999,True,False
mp-1104800,Sm3Pt4,"Pt, Sm",2,0.0033836564285776305,Trigonal,148,R-3,0.0,False,True
mp-12788,Nd3Au4,"Au, Nd",2,0.0,Trigonal,148,R-3,0.0,False,True
mp-1104743,Nd3Rh2,"Nd, Rh",2,0.0,Trigonal,148,R-3,0.0,False,True
mp-30421,Sr3Au2,"Au, Sr",2,0.0,Trigonal,148,R-3,0.0,False,True
mp-571537,ZrCl2,"Cl, Zr",2,0.07382260555555398,Trigonal,148,R-3,0.0,False,True
mp-1103851,Ce3Pd4,"Ce, Pd",2,0.0,Trigonal,148,R-3,0.0,False,True
mp-1103692,Ce3Rh2,"Ce, Rh",2,0.03286595899999867,Trigonal,148,R-3,0.0,False,True
mp-1104206,Ho3Pd4,"Ho, Pd",2,0.0,Trigonal,148,R-3,0.0,False,True
mp-1103863,Ho3Pt4,"Ho, Pt",2,0.0,Trigonal,148,R-3,0.0,False,True
mp-1104303,La3Ir2,"Ir, La",2,0.0,Trigonal,148,R-3,0.0,False,True
mp-1078195,SiI3,"I, Si",2,0.0,Trigonal,148,R-3,2.9566,False,False
mp-1104856,La3Pt4,"La, Pt",2,0.0,Trigonal,148,R-3,0.0,False,True
mp-1203190,Mn2O3,"Mn, O",2,0.07640607924999898,Trigonal,148,R-3,0.21880000000000033,False,False
mp-27734,CrBr3,"Br, Cr",2,0.0,Trigonal,148,R-3,1.2759,False,False
mp-1104675,Tm3Pd4,"Pd, Tm",2,0.0,Trigonal,148,R-3,0.0,False,True
mp-23186,Sc7Cl12,"Cl, Sc",2,0.014477623308271959,Trigonal,148,R-3,0.0,False,True
mp-2164,Mo3S4,"Mo, S",2,0.06481158214285543,Trigonal,148,R-3,0.0,False,True
mp-1391848,CrF6,"Cr, F",2,0.0,Trigonal,148,R-3,2.0863000000000005,True,False
mp-29639,Te7Pd20,"Pd, Te",2,0.0,Trigonal,148,R-3,0.0,False,True
mp-1104731,Ce3Pt2,"Ce, Pt",2,0.03100231433332823,Trigonal,148,R-3,0.0,False,True
mp-23269,WCl3,"Cl, W",2,0.02909921125000281,Trigonal,148,R-3,0.06410000000000005,False,False
mp-28117,VCl3,"Cl, V",2,0.0,Trigonal,148,R-3,0.0,False,True
mp-2629,Ce7O12,"Ce, O",2,0.0,Trigonal,148,R-3,0.0,False,True
mp-22437,Re6P13,"P, Re",2,0.0047945662781962994,Trigonal,148,R-3,0.0,False,True
mp-1105083,Th3Pd4,"Pd, Th",2,0.0,Trigonal,148,R-3,0.0,False,True
mp-567504,CrCl3,"Cl, Cr",2,0.0,Trigonal,148,R-3,1.5182,False,False
mp-1078114,ReCl6,"Cl, Re",2,0.0,Trigonal,148,R-3,0.0,False,True
mp-1227723,Eu4Zn51,"Eu, Zn",2,0.0,Trigonal,148,R-3,0.0,True,True
mp-754455,Sc2O3,"O, Sc",2,0.09726974075000072,Trigonal,148,R-3,4.053,True,False
mp-1104698,Eu3Pt2,"Eu, Pt",2,0.0,Trigonal,148,R-3,0.0,False,True
mp-1226090,Co5Te6,"Co, Te",2,0.07932191045454218,Trigonal,148,R-3,0.0,True,True
mp-1218673,Sr4Zn51,"Sr, Zn",2,0.006455226136363734,Trigonal,148,R-3,0.0,True,True
mp-8601,Te4Mo3,"Mo, Te",2,0.0,Trigonal,148,R-3,0.0,False,True
mp-1104399,Dy3Pd4,"Dy, Pd",2,0.0,Trigonal,148,R-3,0.0,False,True
mp-9888,Ir3Se8,"Ir, Se",2,0.0,Trigonal,148,R-3,0.0,False,True
mp-1396578,TeF6,"F, Te",2,0.00045786178571560754,Trigonal,148,R-3,4.4352,True,False
mp-1103985,Nd3Pt2,"Nd, Pt",2,0.006927050916666566,Trigonal,148,R-3,0.0,False,True
mp-571065,TiBr3,"Br, Ti",2,0.004856990000000394,Trigonal,148,R-3,0.0,False,True
mp-1227465,Ca4Zn51,"Ca, Zn",2,0.0,Trigonal,148,R-3,0.0,True,True
mp-1215634,Zr2Te3,"Te, Zr",2,0.0,Trigonal,148,R-3,0.0,True,True
mp-27127,Te4O9,"O, Te",2,0.0012133476923024133,Trigonal,148,R-3,2.2225,True,False
mp-1103688,Nd3Pt4,"Nd, Pt",2,0.011984774285719979,Trigonal,148,R-3,0.0,False,True
mp-28495,ZrBr2,"Br, Zr",2,0.017037168888887066,Trigonal,148,R-3,0.0,False,True
mp-1104184,Pr3Pd4,"Pd, Pr",2,0.0,Trigonal,148,R-3,0.0,False,True
mp-1104864,Tb3Pt4,"Pt, Tb",2,0.0,Trigonal,148,R-3,0.0,False,True
mp-705414,Fe13O14,"Fe, O",2,0.07187928870370364,Trigonal,148,R-3,0.0,True,True
mp-571442,YI3,"I, Y",2,0.0,Trigonal,148,R-3,3.0417,False,False
mp-28483,WBr6,"Br, W",2,0.0,Trigonal,148,R-3,1.0698999999999999,False,False
mp-764326,Fe12O13,"Fe, O",2,0.08314515580000226,Trigonal,148,R-3,0.0,True,True
mp-22849,BiI3,"Bi, I",2,0.0,Trigonal,148,R-3,2.5349,False,False
mp-1104019,Y3Pd4,"Pd, Y",2,0.0,Trigonal,148,R-3,0.0,False,True
mp-23204,FeCl3,"Cl, Fe",2,0.0734121983333349,Trigonal,148,R-3,0.0,False,True
mp-12699,Ca3Au4,"Au, Ca",2,0.0,Trigonal,148,R-3,0.0,False,True
mp-30066,Sb7Pd20,"Pd, Sb",2,0.0,Trigonal,148,R-3,0.0,False,True
mp-571518,WCl6,"Cl, W",2,0.0,Trigonal,148,R-3,1.9169,False,False
mp-28241,ZrI2,"I, Zr",2,0.059022398888888716,Trigonal,148,R-3,0.07540000000000013,False,False
mp-1104158,Pr3Rh2,"Pr, Rh",2,0.0,Trigonal,148,R-3,0.0,False,True
mp-1407,Rh3Se8,"Rh, Se",2,0.0,Trigonal,148,R-3,0.0,False,True
mp-567950,U11Ni16,"Ni, U",2,0.0,Trigonal,148,R-3,0.0,False,True
mp-1104294,Ce3Pt4,"Ce, Pt",2,0.0,Trigonal,148,R-3,0.0,False,True
mp-1199295,Cd41Ir8,"Cd, Ir",2,0.0,Trigonal,148,R-3,0.0,False,True
mp-540546,Er3Ni2,"Er, Ni",2,0.012651877666664646,Trigonal,148,R-3,0.0,False,True
mp-1104074,Sr3Pt2,"Pt, Sr",2,0.0,Trigonal,148,R-3,0.0,True,True
mp-12612,Ba3Ag2,"Ag, Ba",2,0.0,Trigonal,148,R-3,0.0,False,True
mp-23232,FeBr3,"Br, Fe",2,0.0,Trigonal,148,R-3,0.0,False,True
mp-23281,SbI3,"I, Sb",2,0.0,Trigonal,148,R-3,2.1446000000000005,False,False
mp-1104136,Er3Pt4,"Er, Pt",2,0.0,Trigonal,148,R-3,0.0,False,True
mp-1104774,Er3Pd4,"Er, Pd",2,0.0,Trigonal,148,R-3,0.0,False,True
mp-669546,AlPd,"Al, Pd",2,0.007942607692307035,Trigonal,148,R-3,0.0,False,True
mp-558569,SiO2,"O, Si",2,0.07296596861111126,Trigonal,148,R-3,5.6415999999999995,True,False
mp-29487,PdCl2,"Cl, Pd",2,0.0,Trigonal,148,R-3,1.5592000000000001,False,False
mp-614777,NiF3,"F, Ni",2,0.0,Trigonal,148,R-3,0.0,False,True
mp-1104088,Tb3Pd4,"Pd, Tb",2,0.0,Trigonal,148,R-3,0.0,False,True
mp-570734,Pr3Pt4,"Pr, Pt",2,0.01897191285713884,Trigonal,148,R-3,0.0,False,True
mp-1104177,Pr3Pt2,"Pr, Pt",2,0.011333295875005867,Trigonal,148,R-3,0.0,False,True
mp-1195805,Ga41Mo8,"Ga, Mo",2,0.0026373337614353787,Trigonal,148,R-3,0.0,True,True
mp-24043,H2O,"H, O",2,0.005572493055555405,Trigonal,148,R-3,5.4391,False,False
mp-1103963,Lu3Pd4,"Lu, Pd",2,0.0,Trigonal,148,R-3,0.0,False,True
mp-1104311,Sm3Pd4,"Pd, Sm",2,0.0,Trigonal,148,R-3,0.0,False,True
mp-1104753,La3Pt2,"La, Pt",2,0.005386151416658436,Trigonal,148,R-3,0.0,False,True
mp-1104435,La3Pd4,"La, Pd",2,0.0,Trigonal,148,R-3,0.0,False,True
mp-23218,AsI3,"As, I",2,0.0,Trigonal,148,R-3,2.2375000000000003,False,False
mp-1217357,Te8Ir3,"Ir, Te",2,0.0,Trigonal,148,R-3,0.0,True,True
mp-754624,Al2O3,"Al, O",2,0.07472612599999895,Trigonal,148,R-3,5.6671,True,False
mp-27533,P2Pd15,"P, Pd",2,0.004448061176471896,Trigonal,148,R-3,0.0,False,True
mp-558115,SiO2,"O, Si",2,0.008596245666666391,Trigonal,148,R-3,5.6222,False,False
mp-1215377,Zr4O,"O, Zr",2,0.0,Trigonal,148,R-3,0.0,True,True
mp-555569,Cr2S3,"Cr, S",2,0.0,Trigonal,148,R-3,0.0,False,True
mp-1104164,Ba3Au2,"Au, Ba",2,0.0,Trigonal,148,R-3,0.0,False,True
mp-1104661,Ca3Pd2,"Ca, Pd",2,0.0,Trigonal,148,R-3,0.0,False,True
mp-984698,Ca3Pt2,"Ca, Pt",2,0.0,Trigonal,148,R-3,0.0,True,True
mp-559550,SiO2,"O, Si",2,0.015880222222222073,Trigonal,148,R-3,5.6097,False,False
mp-2832,Cr2Se3,"Cr, Se",2,0.0,Trigonal,148,R-3,0.0,False,True
mp-7273,Te8Rh3,"Rh, Te",2,0.0,Trigonal,148,R-3,0.0,False,True
mp-753829,Cr2O3,"Cr, O",2,0.07642764400000068,Trigonal,148,R-3,0.0,True,True
mp-17717,Pu3Pd4,"Pd, Pu",2,0.07798133077381308,Trigonal,148,R-3,0.0,False,True
mp-1201871,Li7Si3,"Li, Si",2,0.0,Trigonal,153,P3_212,0.0,True,True
mp-569890,CrCl3,"Cl, Cr",2,0.006774582500000292,Trigonal,153,P3_212,1.4598,False,False
mp-569756,TiCl3,"Cl, Ti",2,0.0,Trigonal,151,P3_112,0.0,False,True
mp-1213805,CrI3,"Cr, I",2,0.0,Trigonal,151,P3_112,1.1590000000000003,True,False
mp-570997,RuCl3,"Cl, Ru",2,0.02901247833333276,Trigonal,151,P3_112,0.0,False,True
mp-28731,V6C5,"C, V",2,0.0,Trigonal,151,P3_112,0.0,False,True
mp-1209131,Sn9Pd13,"Pd, Sn",2,0.006965907840911001,Trigonal,152,P3_121,0.0,True,True
mp-358,HgTe,"Hg, Te",2,0.03703848333333326,Trigonal,152,P3_121,0.48019999999999996,False,False
mp-7000,SiO2,"O, Si",2,0.0,Trigonal,152,P3_121,5.719,False,False
mp-1104286,Ge4Rh,"Ge, Rh",2,0.09073754899999997,Trigonal,152,P3_121,0.0,False,True
mp-489,Ge4Ir,"Ge, Ir",2,0.03372851449999814,Trigonal,152,P3_121,0.0,False,True
mp-1208852,Sn4Rh,"Rh, Sn",2,0.002812003499999882,Trigonal,152,P3_121,0.0,True,True
mp-733,GeO2,"Ge, O",2,0.07958279611111152,Trigonal,152,P3_121,3.2500999999999998,False,False
mp-15951,BeF2,"Be, F",2,0.00039670611111120024,Trigonal,152,P3_121,8.3235,False,False
mp-7826,HgO,"Hg, O",2,0.002898971249997828,Trigonal,152,P3_121,1.3101,False,False
mp-306,B2O3,"B, O",2,0.0,Trigonal,152,P3_121,6.3017,False,False
mp-1094404,YMg2,"Mg, Y",2,0.09474609500000009,Monoclinic,15,C2/c,0.0,True,True
mp-554855,CrF4,"Cr, F",2,0.0,Monoclinic,15,C2/c,0.0,False,True
mp-31033,HfF4,"F, Hf",2,0.0,Monoclinic,15,C2/c,5.4058,False,False
mp-27148,BeP2,"Be, P",2,0.0,Monoclinic,15,C2/c,0.3944000000000001,False,False
mp-1214755,BPd6,"B, Pd",2,0.0,Monoclinic,15,C2/c,0.0,True,True
mp-1103691,Er5Ru2,"Er, Ru",2,0.0,Monoclinic,15,C2/c,0.0,False,True
mp-1206573,K3Bi2,"Bi, K",2,0.025612190958336445,Monoclinic,15,C2/c,0.0,True,True
mp-1039058,MgBi2,"Bi, Mg",2,0.0942080833333323,Monoclinic,15,C2/c,0.0,True,True
mp-612520,UI4,"I, U",2,0.05014384200000155,Monoclinic,15,C2/c,0.16699999999999998,True,False
mp-10497,SrC2,"C, Sr",2,0.05353003777777854,Monoclinic,15,C2/c,2.2919,False,False
mp-570355,PbCl4,"Cl, Pb",2,0.09137346449999484,Monoclinic,15,C2/c,2.0991,False,False
mp-1104937,Pr5Ru2,"Pr, Ru",2,0.0,Monoclinic,15,C2/c,0.0,False,True
mp-569059,HfI4,"Hf, I",2,0.0,Monoclinic,15,C2/c,2.3487,False,False
mp-567907,P3N5,"N, P",2,0.0,Monoclinic,15,C2/c,3.5599999999999996,False,False
mp-753435,Mn2F7,"F, Mn",2,0.055144058055555334,Monoclinic,15,C2/c,0.0,True,True
mp-7317,Sm5Co2,"Co, Sm",2,0.0,Monoclinic,15,C2/c,0.0,False,True
mp-1283030,FeO,"Fe, O",2,0.014061861250000973,Monoclinic,15,C2/c,1.7989000000000002,True,False
mp-757410,VF4,"F, V",2,0.05270328400000146,Monoclinic,15,C2/c,1.4448999999999999,True,False
mp-30523,Ta3As,"As, Ta",2,0.009846854687502571,Monoclinic,15,C2/c,0.0,False,True
mp-569561,TeCl4,"Cl, Te",2,0.0,Monoclinic,15,C2/c,3.0452000000000004,False,False
mp-755453,MnP4,"Mn, P",2,0.04029215266666686,Monoclinic,15,C2/c,0.0,True,True
mp-27436,PaCl5,"Cl, Pa",2,0.0,Monoclinic,15,C2/c,2.4189,False,False
mp-287,UF4,"F, U",2,0.0,Monoclinic,15,C2/c,0.0,False,True
mp-1104500,Sm5Ir2,"Ir, Sm",2,0.0,Monoclinic,15,C2/c,0.0,False,True
mp-1197742,In2Te5,"In, Te",2,0.0,Monoclinic,15,C2/c,0.8515000000000006,False,False
mp-22749,Mn5C2,"C, Mn",2,0.01772275065217066,Monoclinic,15,C2/c,0.0,False,True
mp-1104417,La5Ru2,"La, Ru",2,0.0,Monoclinic,15,C2/c,0.0,False,True
mp-556754,Ti3O5,"O, Ti",2,0.007691419531250077,Monoclinic,15,C2/c,0.0,False,True
mp-1272524,CrO,"Cr, O",2,0.0492066079166662,Monoclinic,15,C2/c,1.5811000000000002,True,False
mp-704645,CuO,"Cu, O",2,0.00026465499999872577,Monoclinic,15,C2/c,0.0,False,True
mp-574498,Cs3Bi2,"Bi, Cs",2,0.00637911112499534,Monoclinic,15,C2/c,0.0,False,True
mp-1182923,Al2O3,"Al, O",2,0.09592067700000051,Monoclinic,15,C2/c,4.5868,True,False
mp-684623,Zr10C9,"C, Zr",2,0.0,Monoclinic,15,C2/c,0.0,True,True
mp-1001,BaN2,"Ba, N",2,0.0,Monoclinic,15,C2/c,0.0,False,True
mp-1080677,Tl2Se3,"Se, Tl",2,0.03711518418750259,Monoclinic,15,C2/c,0.8149999999999995,False,False
mp-1194272,ZrF4,"F, Zr",2,0.0037675211666670094,Monoclinic,15,C2/c,4.6108,False,False
mp-504787,NpF4,"F, Np",2,0.0,Monoclinic,15,C2/c,0.0,False,True
mp-672286,Eu3Ga2,"Eu, Ga",2,0.0,Monoclinic,15,C2/c,0.0,False,True
mp-1104525,NdAu6,"Au, Nd",2,0.005496964489794198,Monoclinic,15,C2/c,0.0,False,True
mp-1217859,Tb2F15,"F, Tb",2,0.06564216867647055,Monoclinic,15,C2/c,0.10289999999999999,True,False
mp-1104652,Nd5Co2,"Co, Nd",2,0.029407746547622793,Monoclinic,15,C2/c,0.0,False,True
mp-1103978,Tb5Ir2,"Ir, Tb",2,0.0,Monoclinic,15,C2/c,0.0,False,True
mp-567415,Nd2B5,"B, Nd",2,0.0,Monoclinic,15,C2/c,0.0,False,True
mp-2794,Fe5C2,"C, Fe",2,0.05919742214285684,Monoclinic,15,C2/c,0.0,False,True
mp-573812,Cs3As11,"As, Cs",2,0.0,Monoclinic,15,C2/c,1.3912000000000002,False,False
mp-2843,SnF2,"F, Sn",2,0.0,Monoclinic,15,C2/c,3.2704,False,False
mp-1209625,PuF4,"F, Pu",2,0.0,Monoclinic,15,C2/c,0.0,True,True
mp-1189723,NaSi,"Na, Si",2,0.04964014234913794,Monoclinic,15,C2/c,1.2787000000000002,False,False
mp-558380,Cr2F5,"Cr, F",2,0.002589992142858044,Monoclinic,15,C2/c,1.5997,False,False
mp-680422,CBr4,"Br, C",2,0.0,Monoclinic,15,C2/c,2.9265,False,False
mp-1213622,FeF6,"F, Fe",2,0.0,Monoclinic,15,C2/c,0.5263,True,False
mp-1094461,MgZn2,"Mg, Zn",2,0.09210977499999884,Monoclinic,15,C2/c,0.0,True,True
mp-1181783,FeF3,"F, Fe",2,0.019842060416667806,Monoclinic,15,C2/c,3.0027999999999997,True,False