material_id,formula,elements,num_elements,energy_above_hull,crystal_system,spacegroup_number,spacegroup_symbol,band_gap,theoretical,is_metal
mp-632229,HBr,"Br, H",2,0.0,Orthorhombic,36,Cmc2_1,4.681,False,False
mp-754401,Al2O3,"Al, O",2,0.09512385699999992,Orthorhombic,36,Cmc2_1,4.2347,True,False
mp-715438,Fe3O4,"Fe, O",2,0.07826593071428789,Orthorhombic,36,Cmc2_1,0.5739999999999998,True,False
mp-2798,SiP,"P, Si",2,0.0,Orthorhombic,36,Cmc2_1,1.7395,False,False
mp-568856,Mn3As2,"As, Mn",2,0.07017136891379216,Orthorhombic,36,Cmc2_1,0.0,False,True
mp-571636,InCl,"Cl, In",2,0.0016458790624991337,Orthorhombic,36,Cmc2_1,1.4018000000000002,False,False
mp-2831286,MnO,"Mn, O",2,0.05538233125000147,Orthorhombic,36,Cmc2_1,0.9860000000000002,True,False
mp-29721,B3H5,"B, H",2,0.04459328468750101,Orthorhombic,36,Cmc2_1,3.8726000000000003,False,False
mp-717,B2O3,"B, O",2,0.005631319333332385,Orthorhombic,36,Cmc2_1,8.3751,False,False
mp-23297,BrF3,"Br, F",2,0.0,Orthorhombic,36,Cmc2_1,2.211,False,False
mp-567687,CrI2,"Cr, I",2,0.0937847818518529,Orthorhombic,36,Cmc2_1,0.0,False,True
mp-556218,SiO2,"O, Si",2,0.012897781944445796,Orthorhombic,36,Cmc2_1,5.6156999999999995,False,False
mp-1185953,MgS2,"Mg, S",2,0.004917676666666537,Orthorhombic,36,Cmc2_1,1.0118,True,False
mp-7670,K2Se3,"K, Se",2,0.0,Orthorhombic,36,Cmc2_1,0.644,False,False
mp-1194759,Ba7Ge39,"Ba, Ge",2,0.049776782309782774,Orthorhombic,36,Cmc2_1,0.0,False,True
mp-697111,H2O,"H, O",2,0.0,Orthorhombic,36,Cmc2_1,5.520200000000001,False,False
mp-8073,AsPd2,"As, Pd",2,0.0,Orthorhombic,36,Cmc2_1,0.0,False,True
mp-632326,HCl,"Cl, H",2,0.0,Orthorhombic,36,Cmc2_1,5.8162,False,False
mp-1079600,Cs2S3,"Cs, S",2,0.0,Orthorhombic,36,Cmc2_1,1.3635,False,False
mp-32669,Ag2S,"Ag, S",2,0.009918613333333326,Orthorhombic,36,Cmc2_1,1.3001000000000003,True,False
mp-7449,Cs2Se3,"Cs, Se",2,0.0,Orthorhombic,36,Cmc2_1,0.7396,False,False
mp-1042110,Re2O7,"O, Re",2,0.03883996458333172,Orthorhombic,36,Cmc2_1,3.4686999999999997,True,False
mp-7446,Rb2S3,"Rb, S",2,0.0,Orthorhombic,36,Cmc2_1,1.3433000000000002,False,False
mp-557264,SiO2,"O, Si",2,0.01269825555555748,Orthorhombic,36,Cmc2_1,5.4421,True,False
mp-7667,K2S3,"K, S",2,0.0,Orthorhombic,36,Cmc2_1,1.2855,False,False
mp-569727,BiPd,"Bi, Pd",2,0.01069929312499962,Orthorhombic,36,Cmc2_1,0.0,False,True
mp-685146,CdTe,"Cd, Te",2,0.008631497500001473,Orthorhombic,36,Cmc2_1,1.4843000000000002,True,False
mp-30380,GaAu2,"Au, Ga",2,0.007127586666669572,Orthorhombic,36,Cmc2_1,0.0,False,True
mp-632296,HF,"F, H",2,0.030579284999999956,Orthorhombic,36,Cmc2_1,6.7187,False,False
mp-1887,MoP2,"Mo, P",2,0.0,Orthorhombic,36,Cmc2_1,0.0,False,True
mp-1213763,ClF5,"Cl, F",2,0.0,Orthorhombic,36,Cmc2_1,3.0867999999999998,True,False
mp-542106,SbPd2,"Pd, Sb",2,0.0,Orthorhombic,36,Cmc2_1,0.0,False,True
mp-11328,P2W,"P, W",2,0.0,Orthorhombic,36,Cmc2_1,0.0,False,True
mp-1080271,Cs2Se,"Cs, Se",2,0.07175198666666471,Orthorhombic,36,Cmc2_1,1.6602999999999999,True,False
mp-554074,NbS2,"Nb, S",2,0.010183759166667805,Orthorhombic,36,Cmc2_1,0.0,False,True
mp-27987,BrF5,"Br, F",2,0.0,Orthorhombic,36,Cmc2_1,3.4507,False,False
mp-1197413,Sc9Te2,"Sc, Te",2,0.0,Orthorhombic,36,Cmc2_1,0.0,False,True
mp-23173,HgI2,"Hg, I",2,0.0008679333333294625,Orthorhombic,36,Cmc2_1,2.3302,False,False
mp-1219986,Ni6Se5,"Ni, Se",2,0.04927265863636343,Orthorhombic,36,Cmc2_1,0.0,True,True
mp-1184420,Eu5Mg,"Eu, Mg",2,0.05843520354166287,Orthorhombic,38,Amm2,0.0,True,True
mp-978274,MgCd,"Cd, Mg",2,0.029356295833332213,Orthorhombic,38,Amm2,0.0,True,True
mp-1185687,MgSc5,"Mg, Sc",2,0.03306433666666653,Orthorhombic,38,Amm2,0.0,True,True
mp-1094594,LiMg,"Li, Mg",2,0.023826249166666535,Orthorhombic,38,Amm2,0.0,True,True
mp-1185830,Mg5In,"In, Mg",2,0.045421646666665705,Orthorhombic,38,Amm2,0.0,True,True
mp-1094732,Ce2Mg,"Ce, Mg",2,0.07013940277777664,Orthorhombic,38,Amm2,0.0,True,True
mp-1094475,MgZn,"Mg, Zn",2,0.04470156896666677,Orthorhombic,38,Amm2,0.0,True,True
mp-1094555,Mg5Sb,"Mg, Sb",2,0.09148909885416678,Orthorhombic,38,Amm2,0.0,True,True
mp-1094434,Mg5Zn,"Mg, Zn",2,0.030903457433334003,Orthorhombic,38,Amm2,0.0,True,True
mp-642328,U13O34,"O, U",2,0.01927207191489977,Orthorhombic,38,Amm2,0.0,False,True
mp-1080522,YSn3,"Sn, Y",2,0.08341129124999913,Orthorhombic,38,Amm2,0.0,False,True
mp-1038760,Ca2Mg,"Ca, Mg",2,0.0915307024999994,Orthorhombic,38,Amm2,0.4273999999999998,True,False
mp-1094385,MgTi,"Mg, Ti",2,0.09030117749999977,Orthorhombic,38,Amm2,0.0,True,True
mp-1094482,YMg5,"Mg, Y",2,0.05801325666666557,Orthorhombic,38,Amm2,0.0,True,True
mp-977250,Pm5Mg,"Mg, Pm",2,0.07167039833333355,Orthorhombic,38,Amm2,0.0,True,True
mp-1038987,CaMg5,"Ca, Mg",2,0.0903809224999994,Orthorhombic,38,Amm2,0.0,True,True
mp-1039565,CeMg5,"Ce, Mg",2,0.0686328283333335,Orthorhombic,38,Amm2,0.0,True,True
mp-1094251,MgSn,"Mg, Sn",2,0.08934356708333313,Orthorhombic,38,Amm2,0.0,True,True
mp-1094465,Mg2Zn,"Mg, Zn",2,0.07719243986666702,Orthorhombic,38,Amm2,0.0,True,True
mp-1094205,Mg5Sn,"Mg, Sn",2,0.07805667083333345,Orthorhombic,38,Amm2,0.0,True,True
mp-1185698,MgBi5,"Bi, Mg",2,0.08392008333333267,Orthorhombic,38,Amm2,0.0,True,True
mp-1094484,MgZn5,"Mg, Zn",2,0.044126105952380534,Orthorhombic,38,Amm2,0.0,True,True
mp-1094714,Mg5Bi,"Bi, Mg",2,0.07186090208333251,Orthorhombic,38,Amm2,0.0,True,True
mp-1078505,DySn3,"Dy, Sn",2,0.09773883574999864,Orthorhombic,38,Amm2,0.0,False,True
mp-1094648,MgGa,"Ga, Mg",2,0.08298655833333335,Orthorhombic,38,Amm2,0.0,True,True
mp-1094637,MgGa,"Ga, Mg",2,0.07594915999999996,Orthorhombic,38,Amm2,0.0,True,True
mp-1038944,MgCd,"Cd, Mg",2,0.06002784666666727,Orthorhombic,38,Amm2,0.7843,True,False
mp-1079474,ErSn3,"Er, Sn",2,0.08770161458333181,Orthorhombic,38,Amm2,0.0,False,True
mp-1038799,MgBi,"Bi, Mg",2,0.08457808499999775,Orthorhombic,38,Amm2,0.2695999999999996,True,False
mp-1094562,Li2Mg,"Li, Mg",2,0.011386544444444535,Orthorhombic,38,Amm2,0.0,True,True
mp-1186288,Nd5Mg,"Mg, Nd",2,0.07386129999999991,Orthorhombic,38,Amm2,0.0,True,True
mp-1185805,Mg5Hg,"Hg, Mg",2,0.028821280833331686,Orthorhombic,38,Amm2,0.0,True,True
mp-1094815,CeMg2,"Ce, Mg",2,0.06683984888888794,Orthorhombic,38,Amm2,0.0,True,True
mp-1094906,Ca5Mg,"Ca, Mg",2,0.04114980041666705,Orthorhombic,38,Amm2,0.0,True,True
mp-1186744,Pr5Mg,"Mg, Pr",2,0.08208902388888983,Orthorhombic,38,Amm2,0.0,True,True
mp-1094340,MgTi5,"Mg, Ti",2,0.09869290138888953,Orthorhombic,38,Amm2,0.0,True,True
mp-1094626,Mg5Ga,"Ga, Mg",2,0.060506753333333,Orthorhombic,38,Amm2,0.0,True,True
mp-1187320,Tb5Mg,"Mg, Tb",2,0.06972727055555694,Orthorhombic,38,Amm2,0.0,True,True
mp-1039186,MgCd,"Cd, Mg",2,0.035299012500001226,Orthorhombic,38,Amm2,0.0,True,True
mp-1183830,Dy5Mg,"Dy, Mg",2,0.07099647388889263,Orthorhombic,38,Amm2,0.0,True,True
mp-1185098,La5Mg,"La, Mg",2,0.06927965583333329,Orthorhombic,38,Amm2,0.0,True,True
mp-1185829,Mg5Sc,"Mg, Sc",2,0.024928163333333142,Orthorhombic,38,Amm2,0.0,True,True
mp-1022963,IrO3,"Ir, O",2,0.04384385375000033,Orthorhombic,38,Amm2,0.0,True,True
mp-1185802,Mg5Ag,"Ag, Mg",2,0.018076413333333985,Orthorhombic,38,Amm2,0.0,True,True
mp-1220181,Nd4Si5,"Nd, Si",2,0.025759314999998395,Orthorhombic,38,Amm2,0.0,True,True
mp-1187658,Tm5Mg,"Mg, Tm",2,0.04280110083333355,Orthorhombic,38,Amm2,0.0,True,True
mp-2415538,MgZn,"Mg, Zn",2,0.06703865063333336,Orthorhombic,38,Amm2,0.0,True,True
mp-1102356,U3O8,"O, U",2,0.00344824409091693,Orthorhombic,38,Amm2,0.057800000000000296,False,False
mp-976891,MgPb5,"Mg, Pb",2,0.05989732833333594,Orthorhombic,38,Amm2,0.0,True,True
mp-1039049,CeMg,"Ce, Mg",2,0.07612844249999995,Orthorhombic,38,Amm2,0.0,True,True
mp-1094530,Sr5Mg,"Mg, Sr",2,0.09758758416666669,Orthorhombic,38,Amm2,0.0,True,True
mp-1094447,YMg,"Mg, Y",2,0.08779425833333487,Orthorhombic,38,Amm2,0.0,True,True
mp-30596,Cu11Sb3,"Cu, Sb",2,0.041191995357143796,Orthorhombic,38,Amm2,0.0,False,True
mp-977122,Li5Mg,"Li, Mg",2,0.002494519722222588,Orthorhombic,38,Amm2,0.0,True,True
mp-1094524,MgSn,"Mg, Sn",2,0.06921955708333316,Orthorhombic,38,Amm2,0.0,True,True
mp-1094599,LiMg5,"Li, Mg",2,0.012334460833333782,Orthorhombic,38,Amm2,0.0,True,True
mp-1216486,V3Rh5,"Rh, V",2,0.019344521874998577,Orthorhombic,38,Amm2,0.0,True,True
mp-1078819,TmSn3,"Sn, Tm",2,0.08584323750000156,Orthorhombic,38,Amm2,0.0,False,True
mp-1094375,Y5Mg,"Mg, Y",2,0.08747272499999958,Orthorhombic,38,Amm2,0.0,True,True
mp-1094622,MgGa2,"Ga, Mg",2,0.0842543866666654,Orthorhombic,38,Amm2,0.0,True,True
mp-1094575,LiMg,"Li, Mg",2,0.02452137666666676,Orthorhombic,38,Amm2,0.0,True,True
mp-561181,SiO2,"O, Si",2,0.01539572035714265,Orthorhombic,38,Amm2,5.6107,False,False
mp-1094587,LiMg2,"Li, Mg",2,0.03980715333333329,Orthorhombic,38,Amm2,0.0,True,True
mp-1213626,Cu64O,"Cu, O",2,0.03210677769230763,Orthorhombic,38,Amm2,0.0,True,True
mp-1094951,Mg5Cd,"Cd, Mg",2,0.005569181666665868,Orthorhombic,38,Amm2,0.0,True,True
mp-1039543,MgCd2,"Cd, Mg",2,0.04834551888888816,Orthorhombic,38,Amm2,0.09799999999999986,True,False
mp-983609,MgIn5,"In, Mg",2,0.06421176981481747,Orthorhombic,38,Amm2,0.0,True,True
mp-1094573,LiMg,"Li, Mg",2,0.030320199166666395,Orthorhombic,38,Amm2,0.0,True,True
mp-1039403,CaMg,"Ca, Mg",2,0.06696336124999935,Orthorhombic,38,Amm2,0.0,True,True
mp-1039509,CeMg,"Ce, Mg",2,0.08585693083333368,Orthorhombic,38,Amm2,0.025900000000000034,True,False
mp-1217091,Ti3Nb,"Nb, Ti",2,0.06679139250000077,Orthorhombic,38,Amm2,0.0,True,True
mp-1226728,CdAg,"Ag, Cd",2,0.020476040000001916,Orthorhombic,38,Amm2,0.0,True,True
mp-1094308,SrMg,"Mg, Sr",2,0.0846903674999997,Orthorhombic,38,Amm2,0.0,True,True
mp-981747,Sm5Mg,"Mg, Sm",2,0.07316690166666628,Orthorhombic,38,Amm2,0.0,True,True
mp-1184241,ErMg5,"Er, Mg",2,0.038088450000001384,Orthorhombic,38,Amm2,0.0,True,True
mp-1080069,TbSn3,"Sn, Tb",2,0.08998820083333481,Orthorhombic,38,Amm2,0.0,False,True
mp-1187654,TmMg5,"Mg, Tm",2,0.05696916349999981,Orthorhombic,38,Amm2,0.0,True,True
mp-569514,Zn49Pt29,"Pt, Zn",2,0.0,Orthorhombic,38,Amm2,0.0,False,True
mp-1184701,Ho5Mg,"Ho, Mg",2,0.06856208666667296,Orthorhombic,38,Amm2,0.0,True,True
mp-1039582,CeMg,"Ce, Mg",2,0.06763507166666471,Orthorhombic,38,Amm2,0.0,True,True
mp-976239,LiMg,"Li, Mg",2,0.00231969249999997,Orthorhombic,38,Amm2,0.0,True,True
mp-1186234,NbSe2,"Nb, Se",2,0.027050182500001796,Orthorhombic,38,Amm2,0.0,True,True
mp-1217184,Y19Mg97,"Mg, Y",2,0.02683869163793018,Orthorhombic,38,Amm2,0.0,True,True
mp-1094639,MgGa5,"Ga, Mg",2,0.07020376395833328,Orthorhombic,38,Amm2,0.0,True,True
mp-1094299,SrMg,"Mg, Sr",2,0.09668749583333303,Orthorhombic,38,Amm2,0.0,True,True
mp-1038953,CaMg,"Ca, Mg",2,0.04569508374999898,Orthorhombic,38,Amm2,0.25439999999999996,True,False
mp-1185934,MgIn2,"In, Mg",2,0.02916247462962973,Orthorhombic,38,Amm2,0.0,True,True
mp-972892,MgHg5,"Hg, Mg",2,0.049416106666663184,Orthorhombic,38,Amm2,0.0,True,True
mp-1185825,Mg5Pb,"Mg, Pb",2,0.05824946083333171,Orthorhombic,38,Amm2,0.0,True,True
mp-1094490,MgZn,"Mg, Zn",2,0.0826177173,Orthorhombic,38,Amm2,0.0,True,True
mp-1080577,HoSn3,"Ho, Sn",2,0.08844696625000381,Orthorhombic,38,Amm2,0.0,False,True
mp-1094927,Mg2Cd,"Cd, Mg",2,0.018867133611110587,Orthorhombic,38,Amm2,0.0,True,True
mp-1094216,LaMg,"La, Mg",2,0.06661395916666946,Orthorhombic,38,Amm2,0.0,True,True
mp-600055,SiO2,"O, Si",2,0.019012594841269603,Orthorhombic,38,Amm2,5.726100000000001,True,False
mp-1094632,MgGa,"Ga, Mg",2,0.04395106166666807,Orthorhombic,38,Amm2,0.0,True,True
mp-1039468,CaMg,"Ca, Mg",2,0.03048390958333269,Orthorhombic,38,Amm2,0.08569999999999967,True,False
mp-685150,PbF2,"F, Pb",2,0.0029586633333309464,Orthorhombic,41,Aea2,4.3707,True,False
mp-27726,SO2,"O, S",2,0.0,Orthorhombic,41,Aea2,2.8367999999999998,False,False
mp-1184928,IF7,"F, I",2,0.006252095624999399,Orthorhombic,41,Aea2,1.8027000000000002,False,False
mp-570589,SeBr,"Br, Se",2,0.06491759552734422,Orthorhombic,41,Aea2,1.5238,False,False
mp-1175,SrS3,"S, Sr",2,0.032827906093750414,Orthorhombic,41,Aea2,1.0930999999999997,False,False
mp-27988,IF7,"F, I",2,0.0,Orthorhombic,41,Aea2,1.4397,False,False
mp-28099,SBr,"Br, S",2,0.0,Orthorhombic,41,Aea2,2.2489,False,False
mp-1880,SbF3,"F, Sb",2,0.0,Orthorhombic,40,Ama2,4.4396,False,False
mp-510421,CrO3,"Cr, O",2,0.04681459212500094,Orthorhombic,40,Ama2,2.2885,False,False
mp-554573,SiO2,"O, Si",2,0.0074662172222232925,Orthorhombic,40,Ama2,5.7899,True,False
mp-685174,In2Br3,"Br, In",2,0.001095955312499619,Monoclinic,4,P2_1,2.3003,True,False
mp-1096549,SiGe,"Ge, Si",2,0.052984763125,Monoclinic,4,P2_1,0.5090999999999992,True,False
mp-760218,V2F7,"F, V",2,0.08716497861108685,Monoclinic,4,P2_1,0.43809999999999993,True,False
mp-12177,Te2O5,"O, Te",2,0.0,Monoclinic,4,P2_1,1.6822,False,False
mp-557082,H2O,"H, O",2,0.012027649444444677,Monoclinic,4,P2_1,5.6674,True,False
mp-1101328,V9O22,"O, V",2,0.08778555709677605,Monoclinic,4,P2_1,1.0977000000000001,True,False
mp-1221991,Mn7Fe3,"Fe, Mn",2,0.08750120594827493,Monoclinic,4,P2_1,0.0,True,True
mp-760309,Mn2F7,"F, Mn",2,0.01513946805555566,Monoclinic,4,P2_1,0.26559999999999984,True,False
mp-567596,In6Se7,"In, Se",2,0.04236052794871625,Monoclinic,4,P2_1,0.019000000000000128,False,False
mp-690,P4S5,"P, S",2,0.005537089583331323,Monoclinic,4,P2_1,2.4890999999999996,False,False
mp-776081,K2O,"K, O",2,0.08821736333333341,Monoclinic,4,P2_1,1.7426,True,False
mp-752907,VF5,"F, V",2,0.007112644166666904,Monoclinic,4,P2_1,3.0875000000000004,True,False
mp-30168,H34C19,"C, H",2,0.0554291457783016,Monoclinic,4,P2_1,5.4526,False,False
mp-542817,UPt,"Pt, U",2,0.02353114624999364,Monoclinic,4,P2_1,0.0,False,True
mp-972808,SiO2,"O, Si",2,0.007662029722222741,Monoclinic,4,P2_1,5.5882,False,False
mp-560025,Ag2S,"Ag, S",2,0.08891988833333286,Monoclinic,4,P2_1,0.3700999999999999,True,False
mp-1105118,As2O3,"As, O",2,0.019961169500000153,Monoclinic,4,P2_1,3.4494,False,False
mp-726170,RbF3,"F, Rb",2,0.0,Monoclinic,4,P2_1,2.0652999999999997,True,False
mp-866659,H34C19,"C, H",2,0.060366642759433375,Monoclinic,4,P2_1,5.6797,True,False
mp-1191613,AsS2,"As, S",2,0.027285937031251706,Monoclinic,4,P2_1,1.2919,False,False
mp-1105762,UIr,"Ir, U",2,0.0,Monoclinic,4,P2_1,0.0,False,True
mp-1189329,Y3Co,"Co, Y",2,0.0015564962500009827,Monoclinic,4,P2_1,0.0,True,True
mp-1216501,V6Ga7,"Ga, V",2,0.06771473769230774,Orthorhombic,42,Fmm2,0.0,True,True
mp-7007,NbSe2,"Nb, Se",2,0.019516038333332375,Orthorhombic,42,Fmm2,0.0,False,True
mp-685145,BN,"B, N",2,0.001287422500000801,Orthorhombic,42,Fmm2,3.2495000000000003,False,False
mp-1222549,Li9Ag4,"Ag, Li",2,0.009478446153845965,Orthorhombic,42,Fmm2,0.0,True,True
mp-8954,TaSe2,"Se, Ta",2,0.01908616833333099,Orthorhombic,42,Fmm2,0.0,False,True
mp-2648,NbS2,"Nb, S",2,0.019169933333334832,Orthorhombic,42,Fmm2,0.0,False,True
mp-1215735,Zn10Fe3,"Fe, Zn",2,0.0060045394722711976,Orthorhombic,42,Fmm2,0.0,True,True
mp-555293,NbS2,"Nb, S",2,0.01885232000000059,Orthorhombic,42,Fmm2,0.0,False,True
mp-1411,TaS2,"S, Ta",2,0.013469236666665552,Orthorhombic,42,Fmm2,0.0,False,True
mp-647220,Cd85Pd27,"Cd, Pd",2,0.020319149712836992,Orthorhombic,42,Fmm2,0.0,False,True
mp-22009,PbSe,"Pb, Se",2,0.07355198500000171,Orthorhombic,42,Fmm2,1.2994999999999999,False,False
mp-600071,SiO2,"O, Si",2,0.02145780250000051,Orthorhombic,42,Fmm2,5.4719,True,False
mp-11441,Hf2Ga3,"Ga, Hf",2,0.0,Orthorhombic,43,Fdd2,0.0,False,True
mp-1190257,GeSe2,"Ge, Se",2,0.006842112083333518,Orthorhombic,43,Fdd2,1.4891999999999999,False,False
mp-27253,Au2O3,"Au, O",2,0.0,Orthorhombic,43,Fdd2,0.8689999999999998,False,False
mp-2321,Tb3Ge5,"Ge, Tb",2,0.0,Orthorhombic,43,Fdd2,0.0,False,True
mp-8943,PtF4,"F, Pt",2,0.0,Orthorhombic,43,Fdd2,1.2953999999999999,False,False
mp-655461,SrIn,"In, Sr",2,0.004106646875000841,Orthorhombic,43,Fdd2,0.0,False,True
mp-15339,Sr3As4,"As, Sr",2,0.0,Orthorhombic,43,Fdd2,0.6166999999999998,False,False
mp-1213908,Ce3Ge5,"Ce, Ge",2,0.0,Orthorhombic,43,Fdd2,0.0,True,True
mp-754585,V2O5,"O, V",2,0.04754535928571535,Orthorhombic,43,Fdd2,2.5808,True,False
mp-546190,Ag2O3,"Ag, O",2,0.019745315499998917,Orthorhombic,43,Fdd2,0.347,False,False
mp-1104668,Eu3As4,"As, Eu",2,0.0,Orthorhombic,43,Fdd2,0.0,False,True
mp-1482,Zr2Al3,"Al, Zr",2,0.007218464399997515,Orthorhombic,43,Fdd2,0.0,False,True
mp-14289,Ba3P4,"Ba, P",2,0.0,Orthorhombic,43,Fdd2,0.4838999999999998,False,False
mp-568153,Al22Mo5,"Al, Mo",2,0.007330721481483948,Orthorhombic,43,Fdd2,0.0,False,True
mp-542613,GeS2,"Ge, S",2,0.0034313409027779684,Orthorhombic,43,Fdd2,2.049,False,False
mp-685008,Ba20As13,"As, Ba",2,0.0,Orthorhombic,43,Fdd2,0.0,True,True
mp-580126,Sm3Ge5,"Ge, Sm",2,0.0,Orthorhombic,43,Fdd2,0.0,False,True
mp-1207476,Zn7P10,"P, Zn",2,0.06678845544117706,Orthorhombic,43,Fdd2,1.4837999999999996,True,False
mp-2452,P2O5,"O, P",2,0.010806055714287055,Orthorhombic,43,Fdd2,5.2021,False,False
mp-505577,Dy3Ge5,"Dy, Ge",2,0.0,Orthorhombic,43,Fdd2,0.0,False,True
mp-569272,Cs2Se,"Cs, Se",2,0.07512745999999826,Orthorhombic,43,Fdd2,1.7441,False,False
mp-2015,Nd3Ge5,"Ge, Nd",2,0.0,Orthorhombic,43,Fdd2,0.0,False,True
mp-14288,Sr3P4,"P, Sr",2,0.0,Orthorhombic,43,Fdd2,0.8898000000000001,False,False
mp-28096,SCl,"Cl, S",2,0.0,Orthorhombic,43,Fdd2,2.8804,False,False
mp-846,Hf2Al3,"Al, Hf",2,0.014650736999996639,Orthorhombic,43,Fdd2,0.0,False,True
mp-542748,Ho3Ge5,"Ge, Ho",2,0.0,Orthorhombic,43,Fdd2,0.0,False,True
mp-1211671,La3Ge5,"Ge, La",2,0.0,Orthorhombic,43,Fdd2,0.0,True,True
mp-567378,Ba5P9,"Ba, P",2,0.0012306201785703408,Orthorhombic,43,Fdd2,0.0,False,True
mp-760432,Cu2O3,"Cu, O",2,0.04695918400000032,Orthorhombic,43,Fdd2,0.13600000000000012,True,False
mp-13868,PdF4,"F, Pd",2,0.0,Orthorhombic,43,Fdd2,0.6178000000000001,False,False
mp-17118,Y3Ge5,"Ge, Y",2,0.0,Orthorhombic,43,Fdd2,0.0,False,True
mp-1209801,Pr3Ge5,"Ge, Pr",2,0.0,Orthorhombic,43,Fdd2,0.0,True,True
mp-30686,Zr2Ga3,"Ga, Zr",2,0.0,Orthorhombic,43,Fdd2,0.0,False,True
mp-29576,Cd7P10,"Cd, P",2,0.020627509632349827,Orthorhombic,43,Fdd2,1.1063999999999998,False,False
mp-13841,IrF4,"F, Ir",2,0.0009708688333294191,Orthorhombic,43,Fdd2,0.0,False,True
mp-1105092,Eu3P4,"Eu, P",2,0.0,Orthorhombic,43,Fdd2,0.0,False,True
mp-555251,SiO2,"O, Si",2,0.017512269722223195,Orthorhombic,46,Ima2,5.6355,True,False
mp-1094937,MgCd3,"Cd, Mg",2,0.03890128291666528,Orthorhombic,44,Imm2,0.0,True,True
mp-1184342,Eu3Mg,"Eu, Mg",2,0.03356266531249652,Orthorhombic,44,Imm2,0.0,True,True
mp-1217678,Tb2Si3,"Si, Tb",2,0.04700638799999979,Orthorhombic,44,Imm2,0.0,True,True
mp-1039426,Mg3Cd,"Cd, Mg",2,0.029332108749999364,Orthorhombic,44,Imm2,0.0,True,True
mp-600091,SiO2,"O, Si",2,0.018708470370370378,Orthorhombic,44,Imm2,5.685499999999999,True,False
mp-1103952,NdAl4,"Al, Nd",2,0.06810206333333291,Orthorhombic,44,Imm2,0.0,False,True
mp-1094172,La3Mg,"La, Mg",2,0.04361285624999933,Orthorhombic,44,Imm2,0.0,True,True
mp-1094608,Mg3Ga,"Ga, Mg",2,0.06203102999999954,Orthorhombic,44,Imm2,0.0,True,True
mp-29953,Na2B29,"B, Na",2,0.05517210636774106,Orthorhombic,44,Imm2,0.0,True,True
mp-1223125,La2Si3,"La, Si",2,0.04147179799999989,Orthorhombic,44,Imm2,0.0,True,True
mp-1094297,Sr3Mg,"Mg, Sr",2,0.06713983874999974,Orthorhombic,44,Imm2,0.0,True,True
mp-1103934,PrAl4,"Al, Pr",2,0.04192833666666651,Orthorhombic,44,Imm2,0.0,False,True
mp-684609,HCl,"Cl, H",2,0.053566722500000274,Orthorhombic,44,Imm2,5.1812000000000005,True,False
mp-1094449,Y3Mg,"Mg, Y",2,0.06947781250000062,Orthorhombic,44,Imm2,0.0,True,True
mp-1094591,Li3Mg,"Li, Mg",2,0.004553442916666928,Orthorhombic,44,Imm2,0.0,True,True
mp-30738,LiIr3,"Ir, Li",2,0.0,Orthorhombic,44,Imm2,0.0,False,True
mp-1185883,MgHg3,"Hg, Mg",2,0.0494765662499983,Orthorhombic,44,Imm2,0.0,True,True
mp-1224840,Ga2Te3,"Ga, Te",2,0.014547531000001612,Orthorhombic,44,Imm2,0.18299999999999983,True,False
mp-1218710,Sr2Si3,"Si, Sr",2,0.09172877499999998,Orthorhombic,44,Imm2,0.0,True,True
mp-554946,SiO2,"O, Si",2,0.011417050555555974,Orthorhombic,44,Imm2,5.8629999999999995,True,False
mp-1219481,Sb6O13,"O, Sb",2,0.02561506315789508,Orthorhombic,44,Imm2,1.8116000000000003,True,False
mp-1105076,CeAl4,"Al, Ce",2,0.0388355993333338,Orthorhombic,44,Imm2,0.0,True,True
mp-1094430,MgZn3,"Mg, Zn",2,0.08543683797618917,Orthorhombic,44,Imm2,0.0,True,True