material_id,formula,elements,num_elements,energy_above_hull,crystal_system,spacegroup_number,spacegroup_symbol,band_gap,theoretical,is_metal
mp-862770,Tc3Ir,"Ir, Tc",2,0.0,Hexagonal,194,P6_3/mmc,0.0,True,True
mp-982619,Ho3Tm,"Ho, Tm",2,0.008873038333341299,Hexagonal,194,P6_3/mmc,0.0,True,True
mp-867797,RbTl3,"Rb, Tl",2,0.015386987999999935,Hexagonal,194,P6_3/mmc,0.0,True,True
mp-754282,SrO,"O, Sr",2,0.09260482999999908,Hexagonal,194,P6_3/mmc,2.9393000000000002,True,False
mp-1186099,Na3Zn,"Na, Zn",2,0.0815155540583552,Hexagonal,194,P6_3/mmc,0.0,True,True
mp-1187415,Tc3Ge,"Ge, Tc",2,0.06380742875000323,Hexagonal,194,P6_3/mmc,0.0,True,True
mp-20883,Fe3Sn,"Fe, Sn",2,0.03582342999999888,Hexagonal,194,P6_3/mmc,0.0,False,True
mp-2531,Er2Co17,"Co, Er",2,0.0,Hexagonal,194,P6_3/mmc,0.0,False,True
mp-979899,Sm3Ho,"Ho, Sm",2,0.0123678300000023,Hexagonal,194,P6_3/mmc,0.0,True,True
mp-568375,La2Rh7,"La, Rh",2,0.013929699166667753,Hexagonal,194,P6_3/mmc,0.0,False,True
mp-1183109,Ac3Pm,"Ac, Pm",2,0.036769143749999955,Hexagonal,194,P6_3/mmc,0.0,True,True
mp-1079298,NaTl,"Na, Tl",2,0.05368205749999788,Hexagonal,194,P6_3/mmc,0.0,False,True
mp-1184024,GaHg3,"Ga, Hg",2,0.06507774562499691,Hexagonal,194,P6_3/mmc,0.0,True,True
mp-1105911,TiPd3,"Pd, Ti",2,0.0,Hexagonal,194,P6_3/mmc,0.0,False,True
mp-7991,BN,"B, N",2,0.007704892500001392,Hexagonal,194,P6_3/mmc,3.9616999999999996,False,False
mp-1183249,Ag3Se,"Ag, Se",2,0.07320142958333475,Hexagonal,194,P6_3/mmc,0.0,True,True
mp-861626,Tc3Rh,"Rh, Tc",2,0.0,Hexagonal,194,P6_3/mmc,0.0,True,True
mp-1184713,Hf3Bi,"Bi, Hf",2,0.08616300041666491,Hexagonal,194,P6_3/mmc,0.0,True,True
mp-1186058,Na3Hg,"Hg, Na",2,0.013812382708335846,Hexagonal,194,P6_3/mmc,0.0,True,True
mp-30810,Th2Ni17,"Ni, Th",2,0.005821127368419887,Hexagonal,194,P6_3/mmc,0.0,False,True
mp-1186840,Pu3Au,"Au, Pu",2,0.03315319749999901,Hexagonal,194,P6_3/mmc,0.0,True,True
mp-1201816,Gd2Co17,"Co, Gd",2,0.0,Hexagonal,194,P6_3/mmc,0.0,False,True
mp-569638,Dy2Co17,"Co, Dy",2,0.0009842118421063972,Hexagonal,194,P6_3/mmc,0.0,False,True
mp-1095669,HfTc2,"Hf, Tc",2,0.0,Hexagonal,194,P6_3/mmc,0.0,False,True
mp-569803,B2W,"B, W",2,0.0,Hexagonal,194,P6_3/mmc,0.0,False,True
mp-568789,TiSe,"Se, Ti",2,0.03993234937500034,Hexagonal,194,P6_3/mmc,0.0,False,True
mp-1202379,Tm13Zn58,"Tm, Zn",2,0.0,Hexagonal,194,P6_3/mmc,0.015800000000000036,False,False
mp-1183388,BaEu3,"Ba, Eu",2,0.06133194124999619,Hexagonal,194,P6_3/mmc,0.0,True,True
mp-1183051,AcLa3,"Ac, La",2,0.03262462187500148,Hexagonal,194,P6_3/mmc,0.0,True,True
mp-1079544,KTl,"K, Tl",2,0.05023011152777901,Hexagonal,194,P6_3/mmc,0.0,False,True
mp-754824,SrO,"O, Sr",2,0.08798647749999944,Hexagonal,194,P6_3/mmc,2.5643000000000002,True,False
mp-1103990,EuC6,"C, Eu",2,0.0,Hexagonal,194,P6_3/mmc,0.0,False,True
mp-1271850,MnO2,"Mn, O",2,0.06878597638888806,Hexagonal,194,P6_3/mmc,0.0,True,True
mp-975612,GdEr3,"Er, Gd",2,0.02112687874999608,Hexagonal,194,P6_3/mmc,0.0,True,True
mp-1186420,PaFe3,"Fe, Pa",2,0.0,Hexagonal,194,P6_3/mmc,0.0,True,True
mp-861867,AcI3,"Ac, I",2,0.0,Hexagonal,194,P6_3/mmc,2.5886,True,False
mp-1196404,Dy2Fe17,"Dy, Fe",2,0.019605019736843587,Hexagonal,194,P6_3/mmc,0.0,False,True
mp-1185227,Li3Eu,"Eu, Li",2,0.08981631749999863,Hexagonal,194,P6_3/mmc,0.0,True,True
mp-1187674,Tm3Sc,"Sc, Tm",2,0.021993842499995253,Hexagonal,194,P6_3/mmc,0.0,True,True
mp-1184278,GaPd3,"Ga, Pd",2,0.05610788275000189,Hexagonal,194,P6_3/mmc,0.0,True,True
mp-569220,ErRu2,"Er, Ru",2,0.0,Hexagonal,194,P6_3/mmc,0.0,False,True
mp-629015,BN,"B, N",2,0.0017454250000010774,Hexagonal,194,P6_3/mmc,3.9745,True,False
mp-865473,VBr3,"Br, V",2,0.0,Hexagonal,194,P6_3/mmc,0.0,True,True
mp-1196975,Ho2Fe17,"Fe, Ho",2,0.020903471666667173,Hexagonal,194,P6_3/mmc,0.0,False,True
mp-1187662,TmSb3,"Sb, Tm",2,0.09551851000000156,Hexagonal,194,P6_3/mmc,0.0,True,True
mp-1185630,MgIn3,"In, Mg",2,0.0337658318055567,Hexagonal,194,P6_3/mmc,0.0,True,True
mp-11497,TbMg2,"Mg, Tb",2,0.014692953333333758,Hexagonal,194,P6_3/mmc,0.0,False,True
mp-1102431,TbFe2,"Fe, Tb",2,0.020570814166667617,Hexagonal,194,P6_3/mmc,0.0,False,True
mp-569981,DyAl3,"Al, Dy",2,0.010280665625000296,Hexagonal,194,P6_3/mmc,0.0,False,True
mp-567305,CeAl3,"Al, Ce",2,0.0,Hexagonal,194,P6_3/mmc,0.0,False,True
mp-1187969,Zn3Ag,"Ag, Zn",2,0.010585677500001722,Hexagonal,194,P6_3/mmc,0.0,True,True
mp-863029,ErCl3,"Cl, Er",2,0.0,Hexagonal,194,P6_3/mmc,3.7781,True,False
mp-1943,GaSe,"Ga, Se",2,1.0495000001498056e-05,Hexagonal,194,P6_3/mmc,1.2386999999999997,False,False
mp-7898,Rb3As,"As, Rb",2,0.0,Hexagonal,194,P6_3/mmc,0.0,False,True
mp-1186781,SrSn3,"Sn, Sr",2,0.03326302041666551,Hexagonal,194,P6_3/mmc,0.0,True,True
mp-979234,Sm3Y,"Sm, Y",2,0.015621406250001968,Hexagonal,194,P6_3/mmc,0.0,True,True
mp-1187801,Y3Lu,"Lu, Y",2,0.040322922916665505,Hexagonal,194,P6_3/mmc,0.0,True,True
mp-14107,NpF3,"F, Np",2,0.0,Hexagonal,194,P6_3/mmc,0.0,False,True
mp-984754,PmHo3,"Ho, Pm",2,0.011891413125006522,Hexagonal,194,P6_3/mmc,0.0,True,True
mp-1015,ZrMn2,"Mn, Zr",2,0.003557800833334568,Hexagonal,194,P6_3/mmc,0.0,True,True
mp-1186319,NdEu3,"Eu, Nd",2,0.0575131293750033,Hexagonal,194,P6_3/mmc,0.0,True,True
mp-1183374,Ba3Ca,"Ba, Ca",2,0.02985033874999843,Hexagonal,194,P6_3/mmc,0.0,True,True
mp-1187369,TbPm3,"Pm, Tb",2,0.02141896999999915,Hexagonal,194,P6_3/mmc,0.0,True,True
mp-1184003,CeSm3,"Ce, Sm",2,0.0899097225000034,Hexagonal,194,P6_3/mmc,0.0,True,True
mp-739,TiP,"P, Ti",2,0.0,Hexagonal,194,P6_3/mmc,0.0,False,True
mp-568901,NbFe2,"Fe, Nb",2,0.0921985224999986,Hexagonal,194,P6_3/mmc,0.0,False,True
mp-863746,TbBr3,"Br, Tb",2,0.0,Hexagonal,194,P6_3/mmc,2.8564,True,False
mp-865411,GdAl3,"Al, Gd",2,0.0,Hexagonal,194,P6_3/mmc,0.0,True,True
mp-1190697,ScFe2,"Fe, Sc",2,0.008439620000000758,Hexagonal,194,P6_3/mmc,0.0,False,True
mp-1185528,La3Eu,"Eu, La",2,0.076603307500001,Hexagonal,194,P6_3/mmc,0.0,True,True
mp-1018795,Mg2Sn,"Mg, Sn",2,0.08313093666666571,Hexagonal,194,P6_3/mmc,0.0,True,True
mp-1101985,TmRe2,"Re, Tm",2,0.0,Hexagonal,194,P6_3/mmc,0.0,False,True
mp-1184195,ErGa3,"Er, Ga",2,0.0,Hexagonal,194,P6_3/mmc,0.0,True,True
mp-1198059,Hf2Be17,"Be, Hf",2,0.0010128772807016517,Hexagonal,194,P6_3/mmc,0.0,False,True
mp-1094602,LiMg3,"Li, Mg",2,0.01779471875000027,Hexagonal,194,P6_3/mmc,0.0,True,True
mp-1077788,BPt2,"B, Pt",2,0.0,Hexagonal,194,P6_3/mmc,0.0,False,True
mp-1084828,La3Al,"Al, La",2,0.0,Hexagonal,194,P6_3/mmc,0.0,False,True
mp-974492,ReTc3,"Re, Tc",2,0.001906739999995466,Hexagonal,194,P6_3/mmc,0.0,True,True
mp-974411,Re3Tc,"Re, Tc",2,0.0051513925000037375,Hexagonal,194,P6_3/mmc,0.0,True,True
mp-865527,YAl3,"Al, Y",2,0.0,Hexagonal,194,P6_3/mmc,0.0,False,True
mp-1079266,Pr3Al,"Al, Pr",2,0.00789171916666831,Hexagonal,194,P6_3/mmc,0.0,False,True
mp-1186265,Nd3Cd,"Cd, Nd",2,0.06618876875000046,Hexagonal,194,P6_3/mmc,0.0,True,True
mp-14017,K3Sb,"K, Sb",2,0.0,Hexagonal,194,P6_3/mmc,0.38939999999999997,False,False
mp-862756,PrGa3,"Ga, Pr",2,0.0,Hexagonal,194,P6_3/mmc,0.0,True,True
mp-30434,BaTl2,"Ba, Tl",2,0.0,Hexagonal,194,P6_3/mmc,0.0,False,True
mp-1188998,NpPd3,"Np, Pd",2,0.0,Hexagonal,194,P6_3/mmc,0.0,False,True
mp-867770,BaHg3,"Ba, Hg",2,0.0,Hexagonal,194,P6_3/mmc,0.0,True,True
mp-1185787,Mg3Pb,"Mg, Pb",2,0.012503427499998665,Hexagonal,194,P6_3/mmc,0.0,True,True
mp-984612,Be3Ru,"Be, Ru",2,0.024404276249999413,Hexagonal,194,P6_3/mmc,0.0,True,True
mp-863648,CaHg3,"Ca, Hg",2,0.0,Hexagonal,194,P6_3/mmc,0.0,False,True
mp-1183102,Ac3Y,"Ac, Y",2,0.04749050937500243,Hexagonal,194,P6_3/mmc,0.0,True,True
mp-1186514,Pm3Hg,"Hg, Pm",2,0.0,Hexagonal,194,P6_3/mmc,0.0,True,True
mp-1095604,ErTc2,"Er, Tc",2,0.0,Hexagonal,194,P6_3/mmc,0.0,False,True
mp-1184707,Ho3Sc,"Ho, Sc",2,0.02432910375000219,Hexagonal,194,P6_3/mmc,0.0,True,True
mp-867800,AcSe3,"Ac, Se",2,0.0,Hexagonal,194,P6_3/mmc,0.0,True,True
mp-1066274,PtPb,"Pb, Pt",2,0.0,Hexagonal,194,P6_3/mmc,0.0,False,True
mp-1191401,HfFe2,"Fe, Hf",2,0.008608761666669906,Hexagonal,194,P6_3/mmc,0.0,False,True
mp-21351,Dy2In,"Dy, In",2,0.0,Hexagonal,194,P6_3/mmc,0.0,False,True
mp-866214,LuBr3,"Br, Lu",2,0.0,Hexagonal,194,P6_3/mmc,3.0669000000000004,True,False
mp-1184407,Eu3Ho,"Eu, Ho",2,0.08272121249999742,Hexagonal,194,P6_3/mmc,0.0,True,True
mp-1183663,Cd3Pb,"Cd, Pb",2,0.09102277125000313,Hexagonal,194,P6_3/mmc,0.0,True,True
mp-1183940,Cs3K,"Cs, K",2,0.0,Hexagonal,194,P6_3/mmc,0.0,True,True
mp-866102,ErHg3,"Er, Hg",2,0.0,Hexagonal,194,P6_3/mmc,0.0,False,True
mp-864699,NdRh3,"Nd, Rh",2,0.0,Hexagonal,194,P6_3/mmc,0.0,False,True
mp-1185784,Mg3Hg,"Hg, Mg",2,0.0,Hexagonal,194,P6_3/mmc,0.0,True,True
mp-862984,PmB3,"B, Pm",2,0.0,Hexagonal,194,P6_3/mmc,0.0,True,True
mp-1102089,HoRu2,"Ho, Ru",2,0.0,Hexagonal,194,P6_3/mmc,0.0,False,True
mp-22860,LaI,"I, La",2,0.0,Hexagonal,194,P6_3/mmc,0.0,False,True
mp-977375,HoBr3,"Br, Ho",2,0.0,Hexagonal,194,P6_3/mmc,2.8409,True,False
mp-1188062,Zr3Sc,"Sc, Zr",2,0.0,Hexagonal,194,P6_3/mmc,0.0,True,True
mp-1184421,Gd3Cd,"Cd, Gd",2,0.046261111249989995,Hexagonal,194,P6_3/mmc,0.0,True,True
mp-1184672,HfTi3,"Hf, Ti",2,0.02859406625000105,Hexagonal,194,P6_3/mmc,0.0,True,True
mp-978008,Tb3Nd,"Nd, Tb",2,0.004738949374999635,Hexagonal,194,P6_3/mmc,0.0,True,True
mp-981549,Y3Th,"Th, Y",2,0.0755016700000013,Hexagonal,194,P6_3/mmc,0.0,True,True
mp-1189793,TiPt3,"Pt, Ti",2,0.002387665714280729,Hexagonal,194,P6_3/mmc,0.0,False,True
mp-867890,AcCd3,"Ac, Cd",2,0.0,Hexagonal,194,P6_3/mmc,0.0,True,True
mp-973684,LuMg3,"Lu, Mg",2,0.014713240000000738,Hexagonal,194,P6_3/mmc,0.0,True,True
mp-979040,TmAl3,"Al, Tm",2,0.0,Hexagonal,194,P6_3/mmc,0.0,True,True
mp-1186347,Ni3Rh,"Ni, Rh",2,0.024257211249999244,Hexagonal,194,P6_3/mmc,0.0,True,True
mp-1072712,NbS2,"Nb, S",2,0.017664338333335472,Hexagonal,194,P6_3/mmc,0.0,False,True
mp-1080552,SrHg3,"Hg, Sr",2,0.0,Hexagonal,194,P6_3/mmc,0.0,False,True
mp-983567,CaAc3,"Ac, Ca",2,0.02783329812499602,Hexagonal,194,P6_3/mmc,0.0,True,True
mp-1103315,Be2Ru,"Be, Ru",2,0.0,Hexagonal,194,P6_3/mmc,0.0,False,True
mp-1186498,Pm3Cd,"Cd, Pm",2,0.0,Hexagonal,194,P6_3/mmc,0.0,True,True
mp-1103211,CaPt2,"Ca, Pt",2,0.05739140749999194,Hexagonal,194,P6_3/mmc,0.0,False,True
mp-1187822,Y3Tl,"Tl, Y",2,0.0595724837500029,Hexagonal,194,P6_3/mmc,0.0,True,True
mp-1078,CaCd2,"Ca, Cd",2,0.004997881666668036,Hexagonal,194,P6_3/mmc,0.0,False,True
mp-1185350,LiCa3,"Ca, Li",2,0.07511619531249991,Hexagonal,194,P6_3/mmc,0.0,True,True
mp-1187851,YHo3,"Ho, Y",2,0.016839302500002873,Hexagonal,194,P6_3/mmc,0.0,True,True
mp-1185538,Cs3As,"As, Cs",2,0.06896162750000334,Hexagonal,194,P6_3/mmc,0.0,True,True
mp-1186861,Rb3Na,"Na, Rb",2,0.04444534903017194,Hexagonal,194,P6_3/mmc,0.0,True,True
mp-488,CuSe,"Cu, Se",2,0.0007449874999991835,Hexagonal,194,P6_3/mmc,0.0,False,True
mp-864952,Mg3Ag,"Ag, Mg",2,0.021672128750000574,Hexagonal,194,P6_3/mmc,0.0,True,True
mp-971920,TmMg3,"Mg, Tm",2,0.009440907321430103,Hexagonal,194,P6_3/mmc,0.0,True,True
mp-30853,Tl2Pt3,"Pt, Tl",2,0.0,Hexagonal,194,P6_3/mmc,0.0,False,True
mp-1094338,SrMg3,"Mg, Sr",2,0.06567993749999967,Hexagonal,194,P6_3/mmc,0.0,True,True
mp-1199370,Tb2Co17,"Co, Tb",2,0.00028303105263116635,Hexagonal,194,P6_3/mmc,0.0,False,True
mp-1184720,HgBr3,"Br, Hg",2,0.09898549791666644,Hexagonal,194,P6_3/mmc,0.0,True,True
mp-1186229,NbRu3,"Nb, Ru",2,0.01640889249999944,Hexagonal,194,P6_3/mmc,0.0,True,True
mp-30639,Th2Fe7,"Fe, Th",2,0.0,Hexagonal,194,P6_3/mmc,0.0,False,True
mp-1019276,TaSe2,"Se, Ta",2,0.0,Hexagonal,194,P6_3/mmc,0.0,False,True
mp-570071,Dy2Zn17,"Dy, Zn",2,0.0028216152631577174,Hexagonal,194,P6_3/mmc,0.0,False,True
mp-863718,PmNi3,"Ni, Pm",2,0.0,Hexagonal,194,P6_3/mmc,0.0,True,True
mp-865180,ThAu3,"Au, Th",2,0.018832671304348736,Hexagonal,194,P6_3/mmc,0.0,True,True
mp-1208630,SrC6,"C, Sr",2,0.0,Hexagonal,194,P6_3/mmc,0.0,True,True
mp-1183865,CeEr3,"Ce, Er",2,0.06376873749999845,Hexagonal,194,P6_3/mmc,0.0,True,True
mp-864937,Mg3Sc,"Mg, Sc",2,0.0020139399999994367,Hexagonal,194,P6_3/mmc,0.0,True,True
mp-1186809,PuAl3,"Al, Pu",2,0.0031668368749997455,Hexagonal,194,P6_3/mmc,0.0,True,True
mp-1186974,Sc3Tl,"Sc, Tl",2,0.0,Hexagonal,194,P6_3/mmc,0.0,True,True
mp-1095682,Fe2Mo,"Fe, Mo",2,0.001644767499998423,Hexagonal,194,P6_3/mmc,0.0,False,True
mp-974326,OsRu3,"Os, Ru",2,0.0,Hexagonal,194,P6_3/mmc,0.0,True,True
mp-1183785,CoNi3,"Co, Ni",2,0.030216969999999677,Hexagonal,194,P6_3/mmc,0.0,True,True
mp-23679,PuH3,"H, Pu",2,0.0,Hexagonal,194,P6_3/mmc,0.0,False,True
mp-982557,HoGa3,"Ga, Ho",2,0.0,Hexagonal,194,P6_3/mmc,0.0,True,True
mp-1689,HfRe2,"Hf, Re",2,0.0,Hexagonal,194,P6_3/mmc,0.0,False,True
mp-972494,SmMg3,"Mg, Sm",2,0.03094696625000104,Hexagonal,194,P6_3/mmc,0.0,True,True
mp-569940,K3Bi,"Bi, K",2,0.00044190874999960883,Hexagonal,194,P6_3/mmc,0.036900000000000044,False,False
mp-1186539,PmAg3,"Ag, Pm",2,0.0,Hexagonal,194,P6_3/mmc,0.0,True,True
mp-11270,MnBe2,"Be, Mn",2,0.0,Hexagonal,194,P6_3/mmc,0.0,False,True
mp-1219716,PrNd,"Nd, Pr",2,0.005263965416670402,Hexagonal,194,P6_3/mmc,0.0,True,True
mp-731,Mg3Hg,"Hg, Mg",2,0.017357135000001023,Hexagonal,194,P6_3/mmc,0.0,False,True
mp-861592,PuAu3,"Au, Pu",2,0.0,Hexagonal,194,P6_3/mmc,0.0,True,True
mp-567327,Pu2Ni17,"Ni, Pu",2,0.040976884473684194,Hexagonal,194,P6_3/mmc,0.0,False,True
mp-404,MnTe,"Mn, Te",2,0.05414759125000046,Hexagonal,194,P6_3/mmc,0.0,False,True
mp-1065577,MgO,"Mg, O",2,0.06344360499999979,Hexagonal,194,P6_3/mmc,3.2709999999999995,True,False
mp-865259,HoHg3,"Hg, Ho",2,0.0,Hexagonal,194,P6_3/mmc,0.0,False,True
mp-1186333,NdSm3,"Nd, Sm",2,0.023795749375000952,Hexagonal,194,P6_3/mmc,0.0,True,True
mp-1185477,LiTe3,"Li, Te",2,0.0,Hexagonal,194,P6_3/mmc,0.0,True,True
mp-983509,Na3Cd,"Cd, Na",2,0.0032200737500005516,Hexagonal,194,P6_3/mmc,0.0,True,True
mp-1187824,YBi3,"Bi, Y",2,0.07283482874999958,Hexagonal,194,P6_3/mmc,0.0,True,True
mp-1184149,DyY3,"Dy, Y",2,0.0,Hexagonal,194,P6_3/mmc,0.0,True,True
mp-11855,ErMn2,"Er, Mn",2,0.0,Hexagonal,194,P6_3/mmc,0.0,False,True
mp-1184196,Er3Lu,"Er, Lu",2,0.010897170833331415,Hexagonal,194,P6_3/mmc,0.0,True,True
mp-971794,YMg3,"Mg, Y",2,0.008624555000000811,Hexagonal,194,P6_3/mmc,0.0,True,True
mp-1187297,Tb3Ce,"Ce, Tb",2,0.07538156624999814,Hexagonal,194,P6_3/mmc,0.0,True,True
mp-1018948,Re2N,"N, Re",2,0.05398879458333994,Hexagonal,194,P6_3/mmc,0.0,False,True
mp-867246,TbGa3,"Ga, Tb",2,0.0,Hexagonal,194,P6_3/mmc,0.0,False,True
mp-30846,Sn3Pt2,"Pt, Sn",2,0.0,Hexagonal,194,P6_3/mmc,0.0,False,True
mp-1184705,HgAu3,"Au, Hg",2,0.04260398825000067,Hexagonal,194,P6_3/mmc,0.0,True,True
mp-865005,DyI3,"Dy, I",2,0.0,Hexagonal,194,P6_3/mmc,2.1725000000000003,True,False
mp-1094241,MgSn2,"Mg, Sn",2,0.06635811083333554,Hexagonal,194,P6_3/mmc,0.0,True,True
mp-866046,Ti3In,"In, Ti",2,0.0,Hexagonal,194,P6_3/mmc,0.0,False,True
mp-985702,AgPb3,"Ag, Pb",2,0.09290706833333928,Hexagonal,194,P6_3/mmc,0.0,True,True
mp-1187164,SrAc3,"Ac, Sr",2,0.09051960770833745,Hexagonal,194,P6_3/mmc,0.0,True,True
mp-864735,Mn3Ir,"Ir, Mn",2,0.0,Hexagonal,194,P6_3/mmc,0.0,True,True
mp-862858,PaPt3,"Pa, Pt",2,0.0,Hexagonal,194,P6_3/mmc,0.0,False,True
mp-1186340,NdY3,"Nd, Y",2,0.013785794374996385,Hexagonal,194,P6_3/mmc,0.0,True,True
mp-582360,TaPd3,"Pd, Ta",2,0.06884949800000228,Hexagonal,194,P6_3/mmc,0.0,False,True
mp-736,Li3P,"Li, P",2,0.0,Hexagonal,194,P6_3/mmc,0.6996000000000002,False,False
mp-865144,CdAu3,"Au, Cd",2,0.0,Hexagonal,194,P6_3/mmc,0.0,True,True
mp-1064367,BaPd,"Ba, Pd",2,0.0,Hexagonal,194,P6_3/mmc,0.0,True,True
mp-1185478,Lu3In,"In, Lu",2,0.004462458333335917,Hexagonal,194,P6_3/mmc,0.0,True,True
mp-21170,KPb2,"K, Pb",2,0.0025467358113999694,Hexagonal,194,P6_3/mmc,0.0,False,True
mp-978257,MgSn3,"Mg, Sn",2,0.05513213812499984,Hexagonal,194,P6_3/mmc,0.0,True,True
mp-971909,ZnPd3,"Pd, Zn",2,0.027752594375001216,Hexagonal,194,P6_3/mmc,0.0,True,True
mp-1659,ThRe2,"Re, Th",2,0.0,Hexagonal,194,P6_3/mmc,0.0,False,True
mp-1187116,Sr3Ca,"Ca, Sr",2,0.005635927499998417,Hexagonal,194,P6_3/mmc,0.0,True,True
mp-1187712,TmZr3,"Tm, Zr",2,0.016032154999997772,Hexagonal,194,P6_3/mmc,0.0,True,True
mp-1186524,PrDy3,"Dy, Pr",2,0.01365106708333741,Hexagonal,194,P6_3/mmc,0.0,True,True
mp-862985,PmAu3,"Au, Pm",2,0.0,Hexagonal,194,P6_3/mmc,0.0,True,True
mp-1094652,Mg3Ga,"Ga, Mg",2,0.03467303124999965,Hexagonal,194,P6_3/mmc,0.0,True,True
mp-1114,VP,"P, V",2,0.0,Hexagonal,194,P6_3/mmc,0.0,False,True
mp-1184280,Fe3W,"Fe, W",2,0.0868913018749975,Hexagonal,194,P6_3/mmc,0.0,True,True
mp-1094169,LaMg3,"La, Mg",2,0.04064889749999967,Hexagonal,194,P6_3/mmc,0.0,True,True
mp-1249332,SiO2,"O, Si",2,0.012745261851851097,Hexagonal,194,P6_3/mmc,5.689,True,False
mp-2406,Mg5Pd2,"Mg, Pd",2,0.0,Hexagonal,194,P6_3/mmc,0.0,False,True
mp-1250,Lu2In,"In, Lu",2,0.0,Hexagonal,194,P6_3/mmc,0.0,False,True
mp-1199510,Pr5Ni19,"Ni, Pr",2,0.0,Hexagonal,194,P6_3/mmc,0.0,False,True
mp-1078584,Mn3Ga,"Ga, Mn",2,0.09738024353448083,Hexagonal,194,P6_3/mmc,0.0,False,True
mp-1120767,NaCl,"Cl, Na",2,0.05877064000000054,Hexagonal,194,P6_3/mmc,4.3847000000000005,True,False
mp-1186500,Pm3Au,"Au, Pm",2,0.0,Hexagonal,194,P6_3/mmc,0.0,True,True
mp-1187126,Sr3Li,"Li, Sr",2,0.07493362088068167,Hexagonal,194,P6_3/mmc,0.0,True,True
mp-13854,B3Ru2,"B, Ru",2,0.0,Hexagonal,194,P6_3/mmc,0.0,False,True
mp-1184638,HoAl3,"Al, Ho",2,0.0,Hexagonal,194,P6_3/mmc,0.0,True,True
mp-1183648,Cd3Pd,"Cd, Pd",2,0.040520036317567065,Hexagonal,194,P6_3/mmc,0.0,True,True
mp-984,BN,"B, N",2,0.005704095000000464,Hexagonal,194,P6_3/mmc,4.273999999999999,False,False
mp-984315,Be3Ni,"Be, Ni",2,0.005405039999999417,Hexagonal,194,P6_3/mmc,0.0,True,True
mp-13365,SrZn2,"Sr, Zn",2,0.04626954833333308,Hexagonal,194,P6_3/mmc,0.0,True,True
mp-1183425,Be3Co,"Be, Co",2,0.03437722374999996,Hexagonal,194,P6_3/mmc,0.0,True,True
mp-1187298,Sr3Eu,"Eu, Sr",2,0.037141222499997184,Hexagonal,194,P6_3/mmc,0.0,True,True
mp-11883,MgIr2,"Ir, Mg",2,0.0,Hexagonal,194,P6_3/mmc,0.0,False,True
mp-1102217,NdRu2,"Nd, Ru",2,0.0,Hexagonal,194,P6_3/mmc,0.0,False,True
mp-1186230,NbRh3,"Nb, Rh",2,0.01599139625000312,Hexagonal,194,P6_3/mmc,0.0,True,True
mp-1184718,Ho3Er,"Er, Ho",2,0.01182215499999728,Hexagonal,194,P6_3/mmc,0.0,True,True
mp-2517816,TePb,"Pb, Te",2,0.035592585000003396,Hexagonal,194,P6_3/mmc,0.09860000000000024,True,False
mp-12678,TaMn2,"Mn, Ta",2,0.0,Hexagonal,194,P6_3/mmc,0.0,False,True
mp-1102035,SmRe2,"Re, Sm",2,0.0,Hexagonal,194,P6_3/mmc,0.0,False,True
mp-1184746,HoBi3,"Bi, Ho",2,0.07687353874999836,Hexagonal,194,P6_3/mmc,0.0,True,True
mp-1101770,TmRu2,"Ru, Tm",2,0.0,Hexagonal,194,P6_3/mmc,0.0,False,True
mp-1013525,VS2,"S, V",2,0.0,Hexagonal,194,P6_3/mmc,0.0,True,True
mp-1025425,Co3H,"Co, H",2,0.0042329174999995445,Hexagonal,194,P6_3/mmc,0.0,True,True
mp-569170,CaTe,"Ca, Te",2,0.04063346000000223,Hexagonal,194,P6_3/mmc,1.6323000000000003,True,False
mp-1196175,Y2Ni17,"Ni, Y",2,0.007135290263158289,Hexagonal,194,P6_3/mmc,0.0,False,True
mp-864901,LaAu3,"Au, La",2,0.021509105434780018,Hexagonal,194,P6_3/mmc,0.0,True,True
mp-1201182,Eu2Ni17,"Eu, Ni",2,0.00510862789473876,Hexagonal,194,P6_3/mmc,0.0,False,True
mp-1039492,CeMg2,"Ce, Mg",2,0.0354127611111128,Hexagonal,194,P6_3/mmc,0.0,True,True
mp-1682,ZrAs,"As, Zr",2,0.0,Hexagonal,194,P6_3/mmc,0.0,False,True
mp-1183605,CaPm3,"Ca, Pm",2,0.09739756562499835,Hexagonal,194,P6_3/mmc,0.0,True,True
mp-1186546,Pm3Zn,"Pm, Zn",2,0.033476431250001326,Hexagonal,194,P6_3/mmc,0.0,True,True
mp-973266,Lu3Al,"Al, Lu",2,0.002837988750002296,Hexagonal,194,P6_3/mmc,0.0,True,True
mp-1188040,ZrCu3,"Cu, Zr",2,0.08774148375000035,Hexagonal,194,P6_3/mmc,0.0,True,True
mp-972895,ScAu3,"Au, Sc",2,0.06656842499999982,Hexagonal,194,P6_3/mmc,0.0,True,True
mp-1186714,Sm3Eu,"Eu, Sm",2,0.07625826374999889,Hexagonal,194,P6_3/mmc,0.0,True,True
mp-21349,PuGa3,"Ga, Pu",2,0.0,Hexagonal,194,P6_3/mmc,0.0,False,True
mp-1191219,GdRh3,"Gd, Rh",2,0.0,Hexagonal,194,P6_3/mmc,0.0,False,True
mp-30602,DyMg2,"Dy, Mg",2,0.014069624166666461,Hexagonal,194,P6_3/mmc,0.0,False,True
mp-867264,Re3Os,"Os, Re",2,0.0,Hexagonal,194,P6_3/mmc,0.0,True,True
mp-1094116,MgAl2,"Al, Mg",2,0.0,Hexagonal,194,P6_3/mmc,0.0,True,True
mp-1185280,Li3Te,"Li, Te",2,0.06874713041666602,Hexagonal,194,P6_3/mmc,0.0,True,True
mp-569095,Rb3Bi,"Bi, Rb",2,0.0,Hexagonal,194,P6_3/mmc,0.0,False,True