material_id,formula,elements,num_elements,energy_above_hull,crystal_system,spacegroup_number,spacegroup_symbol,band_gap,theoretical,is_metal
mp-974370,PtRh3,"Pt, Rh",2,0.0019054425000000208,Cubic,221,Pm-3m,0.0,True,True
mp-1921,ThTe,"Te, Th",2,0.0,Cubic,221,Pm-3m,0.0,False,True
mp-1184065,Dy3Ho,"Dy, Ho",2,0.052282777500003874,Cubic,221,Pm-3m,0.0,True,True
mp-2403,YPt3,"Pt, Y",2,0.0,Cubic,221,Pm-3m,0.0,False,True
mp-30728,HoIn,"Ho, In",2,0.0,Cubic,221,Pm-3m,0.0,False,True
mp-972539,Sm3Er,"Er, Sm",2,0.03644885916666851,Cubic,221,Pm-3m,0.0,True,True
mp-20344,Fe3Ge,"Fe, Ge",2,0.0,Cubic,221,Pm-3m,0.0,False,True
mp-974865,NdY3,"Nd, Y",2,0.07200533062499659,Cubic,221,Pm-3m,0.0,True,True
mp-2060,LuTl3,"Lu, Tl",2,0.0,Cubic,221,Pm-3m,0.0,False,True
mp-30338,Y3Al,"Al, Y",2,0.07052767812499994,Cubic,221,Pm-3m,0.0,False,True
mp-1186928,SbPd3,"Pd, Sb",2,0.07564952785714496,Cubic,221,Pm-3m,0.0,True,True
mp-971758,ZnNi3,"Ni, Zn",2,0.01401181249999972,Cubic,221,Pm-3m,0.0,True,True
mp-2027,HfCo,"Co, Hf",2,0.0,Cubic,221,Pm-3m,0.0,False,True
mp-1039154,MgBi,"Bi, Mg",2,0.09631191499999758,Cubic,221,Pm-3m,0.0,True,True
mp-2134,ErAl3,"Al, Er",2,0.007975068749999537,Cubic,221,Pm-3m,0.0,False,True
mp-20263,CaIn,"Ca, In",2,0.020320988749999103,Cubic,221,Pm-3m,0.0,False,True
mp-1184975,La3Zn,"La, Zn",2,0.09737842250000028,Cubic,221,Pm-3m,0.0,True,True
mp-30468,ThBi,"Bi, Th",2,0.012411177045458466,Cubic,221,Pm-3m,0.0,False,True
mp-398,ErGa3,"Er, Ga",2,0.020147778749997514,Cubic,221,Pm-3m,0.0,False,True
mp-974335,RuRh3,"Rh, Ru",2,0.0347198320833364,Cubic,221,Pm-3m,0.0,True,True
mp-902,BaZn,"Ba, Zn",2,0.0035235766666672497,Cubic,221,Pm-3m,0.0,False,True
mp-21991,Rh17S15,"Rh, S",2,0.0,Cubic,221,Pm-3m,0.0,False,True
mp-21845,FePd3,"Fe, Pd",2,0.0,Cubic,221,Pm-3m,0.0,False,True
mp-1186587,PmHo3,"Ho, Pm",2,0.04381549437500354,Cubic,221,Pm-3m,0.0,True,True
mp-20369,CeIn3,"Ce, In",2,0.0,Cubic,221,Pm-3m,0.0,False,True
mp-1150,URh3,"Rh, U",2,0.0,Cubic,221,Pm-3m,0.0,False,True
mp-535,Fe4N,"Fe, N",2,0.06999223100000052,Cubic,221,Pm-3m,0.0,False,True
mp-1094802,MgSn3,"Mg, Sn",2,0.0345457893750023,Cubic,221,Pm-3m,0.0,True,True
mp-974866,Rb3Na,"Na, Rb",2,0.04839936153017321,Cubic,221,Pm-3m,0.0,True,True
mp-2197,BaHg,"Ba, Hg",2,0.0,Cubic,221,Pm-3m,0.0,False,True
mp-978273,Mg3Cd,"Cd, Mg",2,0.01759173375000067,Cubic,221,Pm-3m,0.0,True,True
mp-11231,YAl3,"Al, Y",2,0.03499018499999984,Cubic,221,Pm-3m,0.0,False,True
mp-702,CeHg,"Ce, Hg",2,0.0,Cubic,221,Pm-3m,0.0,False,True
mp-11843,DyAl,"Al, Dy",2,0.038093063750000766,Cubic,221,Pm-3m,0.0,False,True
mp-1039073,Mg3Bi,"Bi, Mg",2,0.030943198124997906,Cubic,221,Pm-3m,0.0,True,True
mp-862864,Pa3Ge,"Ge, Pa",2,0.0,Cubic,221,Pm-3m,0.0,True,True
mp-2558,SmMg,"Mg, Sm",2,0.0,Cubic,221,Pm-3m,0.0,False,True
mp-2636,GdMg,"Gd, Mg",2,0.0,Cubic,221,Pm-3m,0.0,False,True
mp-22875,TlBr,"Br, Tl",2,0.0046403124999940815,Cubic,221,Pm-3m,1.9877,False,False
mp-568319,DyB6,"B, Dy",2,0.020764303839285958,Cubic,221,Pm-3m,0.0,False,True
mp-1056920,CsI,"Cs, I",2,0.03245251000000149,Cubic,221,Pm-3m,3.6776000000000004,False,False
mp-1187037,Sn3Sb,"Sb, Sn",2,0.08081212749999978,Cubic,221,Pm-3m,0.0,True,True
mp-436,SmRh,"Rh, Sm",2,0.0,Cubic,221,Pm-3m,0.0,False,True
mp-1183636,Ca3Eu,"Ca, Eu",2,0.03131174374999901,Cubic,221,Pm-3m,0.0,True,True
mp-1184759,IrPt3,"Ir, Pt",2,0.0816372900000033,Cubic,221,Pm-3m,0.0,True,True
mp-1184488,In3Bi,"Bi, In",2,0.06479556291666455,Cubic,221,Pm-3m,0.0,True,True
mp-1184225,Fe3W,"Fe, W",2,0.08230830687499768,Cubic,221,Pm-3m,0.0,True,True
mp-11504,MnZn3,"Mn, Zn",2,0.0,Cubic,221,Pm-3m,0.0,False,True
mp-1505,TmMg,"Mg, Tm",2,0.0,Cubic,221,Pm-3m,0.0,False,True
mp-1070544,CrGa4,"Cr, Ga",2,0.0,Cubic,229,Im-3m,0.0,False,True
mp-558836,MoF6,"F, Mo",2,0.030417401785715725,Cubic,229,Im-3m,4.2423,False,False
mp-12766,Mg13Al14,"Al, Mg",2,0.08898626425925915,Cubic,229,Im-3m,0.0,False,True
mp-621624,Tl7Sb2,"Sb, Tl",2,0.0,Cubic,229,Im-3m,0.0,False,True
mp-705519,Ni15O16,"Ni, O",2,0.03822233306451661,Cubic,229,Im-3m,0.0,True,True
mp-1084832,Fe5Co3,"Co, Fe",2,0.04982709750000058,Cubic,229,Im-3m,0.0,True,True
mp-16852,Ga7Ni3,"Ga, Ni",2,0.017288673499997742,Cubic,229,Im-3m,0.0,False,True
mp-22075,In7Pt3,"In, Pt",2,0.015418141999997914,Cubic,229,Im-3m,0.0,False,True
mp-568655,In7Pd3,"In, Pd",2,0.0,Cubic,229,Im-3m,0.0,False,True
mp-639741,SiO2,"O, Si",2,0.02214020625000046,Cubic,229,Im-3m,5.6594999999999995,True,False
mp-505780,Ge7Ir3,"Ge, Ir",2,0.005841246249993048,Cubic,229,Im-3m,0.0,False,True
mp-28246,AgTe3,"Ag, Te",2,0.01857722812500029,Cubic,229,Im-3m,0.0,False,True
mp-2473,Re3As7,"As, Re",2,0.0,Cubic,229,Im-3m,0.0,False,True
mp-600033,SiO2,"O, Si",2,0.017376240833334222,Cubic,229,Im-3m,5.6213,True,False
mp-1025373,TcF6,"F, Tc",2,0.02892184357142824,Cubic,229,Im-3m,0.0,True,True
mp-1191061,Th2Br5,"Br, Th",2,0.07176281333333634,Cubic,229,Im-3m,0.0,False,True
mp-1188512,Ga7Pt3,"Ga, Pt",2,0.0,Cubic,229,Im-3m,0.0,False,True
mp-466,Nb2F5,"F, Nb",2,0.0,Cubic,229,Im-3m,0.1513,False,False
mp-570835,NiHg4,"Hg, Ni",2,0.01705295800000073,Cubic,229,Im-3m,0.0,False,True
mp-936,Hg4Pt,"Hg, Pt",2,0.0,Cubic,229,Im-3m,0.0,False,True
mp-646824,Ca3Ag8,"Ag, Ca",2,0.03675958545454705,Cubic,229,Im-3m,0.0,False,True
mp-22344,Sn7Ru3,"Ru, Sn",2,0.0,Cubic,229,Im-3m,0.0,False,True
mp-600005,SiO2,"O, Si",2,0.02530288805555614,Cubic,229,Im-3m,5.4398,True,False
mp-22040,Sn7Ir3,"Ir, Sn",2,0.01883442749999631,Cubic,229,Im-3m,0.0,False,True
mp-1025168,RuF6,"F, Ru",2,0.036564484642856776,Cubic,229,Im-3m,0.0,True,True
mp-1025374,ReF6,"F, Re",2,0.0,Cubic,229,Im-3m,0.0,True,True
mp-1106289,Ga7Pd3,"Ga, Pd",2,0.0,Cubic,229,Im-3m,0.0,False,True
mp-2729,Sn7Os3,"Os, Sn",2,0.03351108299999339,Cubic,229,Im-3m,0.0,False,True
mp-555791,SiO2,"O, Si",2,0.040642471597221785,Cubic,229,Im-3m,5.7383999999999995,True,False
mp-8560,SF6,"F, S",2,0.008920994761905554,Cubic,229,Im-3m,5.8139,False,False
mp-1080603,Fe7Co,"Co, Fe",2,0.000538421250000809,Cubic,229,Im-3m,0.0,True,True
mp-1025250,RhF6,"F, Rh",2,0.024496424999998823,Cubic,229,Im-3m,0.8667000000000007,True,False
mp-1069288,MnGa4,"Ga, Mn",2,0.0,Cubic,229,Im-3m,0.0,False,True
mp-1521,Sb7Mo3,"Mo, Sb",2,0.002706000999999958,Cubic,229,Im-3m,0.0,False,True
mp-1212307,In7Ni3,"In, Ni",2,0.0,Cubic,229,Im-3m,0.8483999999999998,True,False
mp-1356129,Fe2O3,"Fe, O",2,0.08465900949999927,Orthorhombic,24,I2_12_12_1,1.3134000000000001,True,False
mp-639506,SiO2,"O, Si",2,0.018848092777778547,Orthorhombic,24,I2_12_12_1,5.6572,True,False
mp-1227268,Ce4Ge7,"Ce, Ge",2,0.07793663136363627,Orthorhombic,25,Pmm2,0.0,True,True
mp-2273,Ag3Sb,"Ag, Sb",2,0.0508994350000016,Orthorhombic,25,Pmm2,0.0,False,True
mp-1016233,Mg3Al,"Al, Mg",2,0.055965538020833705,Orthorhombic,25,Pmm2,0.0,True,True
mp-1220502,Nb5Ir7,"Ir, Nb",2,0.07958933541666724,Orthorhombic,25,Pmm2,0.0,True,True
mp-1016238,Mg3Sn,"Mg, Sn",2,0.07792963874999925,Orthorhombic,25,Pmm2,0.0,True,True
mp-1094950,MgGa3,"Ga, Mg",2,0.054286702187500424,Orthorhombic,25,Pmm2,0.0,True,True
mp-1185881,MgHg3,"Hg, Mg",2,0.05539116374999331,Orthorhombic,25,Pmm2,0.0,True,True
mp-1016221,Mg3Ga,"Ga, Mg",2,0.06523274999999895,Orthorhombic,25,Pmm2,0.0,True,True
mp-976139,Li3Mg,"Li, Mg",2,0.0021042304166667414,Orthorhombic,25,Pmm2,0.0,True,True
mp-1094759,La3Mg,"La, Mg",2,0.048342801250000456,Orthorhombic,25,Pmm2,0.0,True,True
mp-1094741,MgZn3,"Mg, Zn",2,0.08581633797618915,Orthorhombic,25,Pmm2,0.0,True,True
mp-1038988,Ce3Mg,"Ce, Mg",2,0.08835081583333348,Orthorhombic,25,Pmm2,0.0,True,True
mp-1225750,Er2Si3,"Er, Si",2,0.06231460699999758,Orthorhombic,25,Pmm2,0.0,True,True
mp-1220187,Nd4Si7,"Nd, Si",2,0.007644316818183228,Orthorhombic,25,Pmm2,0.0,True,True
mp-761151,Zr6O11,"O, Zr",2,0.0838284392352957,Orthorhombic,25,Pmm2,0.3600000000000003,True,False
mp-1094988,MgSn3,"Mg, Sn",2,0.08533692187500064,Orthorhombic,25,Pmm2,0.0,True,True
mp-1184335,Eu3Mg,"Eu, Mg",2,0.07184781031249621,Orthorhombic,25,Pmm2,0.0,True,True
mp-1016243,Mg3Zn,"Mg, Zn",2,0.06835206115000014,Orthorhombic,25,Pmm2,0.0,True,True
mp-1221420,MoPt3,"Mo, Pt",2,0.09937771750000479,Orthorhombic,25,Pmm2,0.0,True,True
mp-1094851,MgCd3,"Cd, Mg",2,0.03183693541666699,Orthorhombic,25,Pmm2,0.0,True,True
mp-1016222,LiMg3,"Li, Mg",2,0.021308161249999902,Orthorhombic,25,Pmm2,0.0,True,True
mp-1217515,Ti13Pb3,"Pb, Ti",2,0.006348488958330734,Orthorhombic,25,Pmm2,0.0,True,True
mp-1217255,Ti13Sb3,"Sb, Ti",2,0.050315500208332864,Orthorhombic,25,Pmm2,0.0,True,True
mp-1016237,Mg3Cd,"Cd, Mg",2,0.02352114125000071,Orthorhombic,25,Pmm2,0.0,True,True
mp-30352,NaAg2,"Ag, Na",2,0.0,Cubic,227,Fd-3m,0.0,False,True
mp-2498,PrOs2,"Os, Pr",2,0.03323833749999494,Cubic,227,Fd-3m,0.0,False,True
mp-1425,TiCr2,"Cr, Ti",2,0.08397102277777613,Cubic,227,Fd-3m,0.0,False,True
mp-1934,LiZn,"Li, Zn",2,0.0,Cubic,227,Fd-3m,0.0,False,True
mp-30775,PrMg2,"Mg, Pr",2,0.01387320333333264,Cubic,227,Fd-3m,0.0,False,True
mp-1085,UOs2,"Os, U",2,0.001504589999996142,Cubic,227,Fd-3m,0.0,False,True
mp-2028,Be2Nb,"Be, Nb",2,0.021783169523808432,Cubic,227,Fd-3m,0.0,False,True
mp-1405126,VS2,"S, V",2,0.08818589750000072,Cubic,227,Fd-3m,0.0,True,True
mp-695,TiCo2,"Co, Ti",2,0.050515650000001244,Cubic,227,Fd-3m,0.0,False,True
mp-1400,HfW2,"Hf, W",2,0.0,Cubic,227,Fd-3m,0.0,False,True
mp-400,NdAl2,"Al, Nd",2,0.0,Cubic,227,Fd-3m,0.0,False,True
mp-421,DyNi2,"Dy, Ni",2,0.0,Cubic,227,Fd-3m,0.0,False,True
mp-568430,BaRh2,"Ba, Rh",2,0.0,Cubic,227,Fd-3m,0.0,False,True
mp-858,TmAl2,"Al, Tm",2,0.0,Cubic,227,Fd-3m,0.0,False,True
mp-1207,NdFe2,"Fe, Nd",2,0.08092121416666664,Cubic,227,Fd-3m,0.0,False,True
mp-1926,HoFe2,"Fe, Ho",2,0.0,Cubic,227,Fd-3m,0.0,False,True
mp-571090,ErMn2,"Er, Mn",2,0.09469974277777382,Cubic,227,Fd-3m,0.0,False,True
mp-1212961,Eu2N,"Eu, N",2,0.0,Cubic,227,Fd-3m,0.0,True,True
mp-23163,CsBi2,"Bi, Cs",2,0.0,Cubic,227,Fd-3m,0.0,False,True
mp-2358,SmAl2,"Al, Sm",2,0.0,Cubic,227,Fd-3m,0.0,False,True
mp-2184,As2O3,"As, O",2,0.002575231999999872,Cubic,227,Fd-3m,4.0234000000000005,False,False
mp-570113,BiAu2,"Au, Bi",2,0.0,Cubic,227,Fd-3m,0.0,False,True
mp-9027,TiS2,"S, Ti",2,0.020230631666667165,Cubic,227,Fd-3m,0.0,False,True
mp-22797,EuPt2,"Eu, Pt",2,0.0,Cubic,227,Fd-3m,0.0,False,True
mp-867501,Sc2Ni,"Ni, Sc",2,0.0,Cubic,227,Fd-3m,0.0,False,True
mp-2762,YIr2,"Ir, Y",2,0.0,Cubic,227,Fd-3m,0.0,False,True
mp-19871,PbAu2,"Au, Pb",2,0.004742635416668861,Cubic,227,Fd-3m,0.0,False,True
mp-474,ErFe2,"Er, Fe",2,0.0,Cubic,227,Fd-3m,0.0,False,True
mp-8352,SiO2,"O, Si",2,0.02055120055555726,Cubic,227,Fd-3m,5.3649000000000004,False,False
mp-673,HoNi2,"Ho, Ni",2,0.0,Cubic,227,Fd-3m,0.0,False,True
mp-1390701,CoS2,"Co, S",2,0.09849998916666713,Cubic,227,Fd-3m,0.0,True,True
mp-607,CeRu2,"Ce, Ru",2,0.0,Cubic,227,Fd-3m,0.0,False,True
mp-2295,CaNi2,"Ca, Ni",2,0.0,Cubic,227,Fd-3m,0.0,False,True
mp-1120781,Ni3Se4,"Ni, Se",2,0.0,Cubic,227,Fd-3m,0.0,True,True
mp-1077790,NbFe2,"Fe, Nb",2,0.0,Cubic,227,Fd-3m,0.0,True,True
mp-1214412,Ba4Rh,"Ba, Rh",2,0.07086827450000088,Cubic,227,Fd-3m,0.0,True,True
mp-1768,LaOs2,"La, Os",2,0.028733843888897326,Cubic,227,Fd-3m,0.0,False,True
mp-30444,Be22W,"Be, W",2,0.017619141739129596,Cubic,227,Fd-3m,0.0,False,True
mp-2206,LuCo2,"Co, Lu",2,0.0,Cubic,227,Fd-3m,0.0,False,True
mp-551,BaAl2,"Al, Ba",2,0.04432060651515091,Cubic,227,Fd-3m,0.0,False,True
mp-318,SrIr2,"Ir, Sr",2,0.0,Cubic,227,Fd-3m,0.0,False,True
mp-1019,YNi2,"Ni, Y",2,0.005393703529413152,Cubic,227,Fd-3m,0.0,False,True
mp-472,UAl2,"Al, U",2,0.039401270833337776,Cubic,227,Fd-3m,0.0,False,True
mp-1999,Sb2O3,"O, Sb",2,0.004735054500001112,Cubic,227,Fd-3m,3.3407999999999998,False,False
mp-1190626,Hf2Rh,"Hf, Rh",2,0.0,Cubic,227,Fd-3m,0.0,False,True
mp-30861,PuZn2,"Pu, Zn",2,0.041529133333336965,Cubic,227,Fd-3m,0.0,False,True
mp-803,DyAl2,"Al, Dy",2,0.0,Cubic,227,Fd-3m,0.0,False,True
mp-1188267,Bi2O3,"Bi, O",2,0.062250879499998746,Cubic,227,Fd-3m,2.5813999999999995,True,False
mp-1190841,Hf2Co,"Co, Hf",2,0.07458956791666793,Cubic,227,Fd-3m,0.0,False,True
mp-1828,ThOs2,"Os, Th",2,0.0,Cubic,227,Fd-3m,0.0,False,True
mp-19306,Fe3O4,"Fe, O",2,0.0,Cubic,227,Fd-3m,0.0,False,True
mp-2694,LaAl2,"Al, La",2,0.0,Cubic,227,Fd-3m,0.0,False,True
mp-1939,ErNi2,"Er, Ni",2,0.0,Cubic,227,Fd-3m,0.0,False,True
mp-1328,SrRh2,"Rh, Sr",2,0.0,Cubic,227,Fd-3m,0.0,False,True
mp-1294,YCo2,"Co, Y",2,0.0,Cubic,227,Fd-3m,0.0,False,True
mp-1762,ErRh2,"Er, Rh",2,0.0,Cubic,227,Fd-3m,0.0,False,True
mp-546,HoRh2,"Ho, Rh",2,0.0,Cubic,227,Fd-3m,0.0,False,True
mp-1310,TbRh2,"Rh, Tb",2,0.0,Cubic,227,Fd-3m,0.0,False,True
mp-1799,TaCo2,"Co, Ta",2,0.0417240186666632,Cubic,227,Fd-3m,0.0,False,True
mp-1638,SrAl2,"Al, Sr",2,0.013571949999999333,Cubic,227,Fd-3m,0.0,False,True
mp-1655,UIr2,"Ir, U",2,0.030398044166670246,Cubic,227,Fd-3m,0.0,False,True
mp-1184269,ErMg2,"Er, Mg",2,0.0045281383333346525,Cubic,227,Fd-3m,0.0,True,True
mp-833,CaPd2,"Ca, Pd",2,0.0,Cubic,227,Fd-3m,0.0,False,True
mp-1720,SmRu2,"Ru, Sm",2,0.024035712500001694,Cubic,227,Fd-3m,0.0,False,True
mp-1399418,CrSe2,"Cr, Se",2,0.026669680833333764,Cubic,227,Fd-3m,0.0,True,True
mp-1576,TmNi2,"Ni, Tm",2,0.0,Cubic,227,Fd-3m,0.0,False,True
mp-571271,TmPt2,"Pt, Tm",2,0.05730127399999674,Cubic,227,Fd-3m,0.0,False,True
mp-1191960,Zr2Pt,"Pt, Zr",2,0.010309776666666437,Cubic,227,Fd-3m,0.0,False,True
mp-16031,Sn3N4,"N, Sn",2,0.052327968571429295,Cubic,227,Fd-3m,0.23439999999999994,False,False
mp-1495,ErIr2,"Er, Ir",2,0.0,Cubic,227,Fd-3m,0.0,False,True
mp-978269,MgZn2,"Mg, Zn",2,0.007595595000000399,Cubic,227,Fd-3m,0.0,True,True
mp-670,NbCo2,"Co, Nb",2,0.01888244755555668,Cubic,227,Fd-3m,0.0,False,True
mp-1781,NdRu2,"Nd, Ru",2,0.02316577916666418,Cubic,227,Fd-3m,0.0,False,True
mp-529,SmMg2,"Mg, Sm",2,0.01582971833333202,Cubic,227,Fd-3m,0.0,False,True
mp-582,CeIr2,"Ce, Ir",2,0.0,Cubic,227,Fd-3m,0.0,False,True
mp-2149,NpIr2,"Ir, Np",2,0.0,Cubic,227,Fd-3m,0.0,False,True
mp-480,ErPt2,"Er, Pt",2,0.04152945866666613,Cubic,227,Fd-3m,0.0,False,True
mp-1718,ZrFe2,"Fe, Zr",2,0.0,Cubic,227,Fd-3m,0.0,False,True
mp-204,CeFe2,"Ce, Fe",2,0.0,Cubic,227,Fd-3m,0.0,False,True
mp-18316,Mg2Pd,"Mg, Pd",2,0.00432952222222216,Cubic,227,Fd-3m,0.0,False,True
mp-747,BaPt2,"Ba, Pt",2,0.0,Cubic,227,Fd-3m,0.0,False,True
mp-916,DyPt2,"Dy, Pt",2,0.006729229000001169,Cubic,227,Fd-3m,0.0,False,True
mp-890,NdIr2,"Ir, Nd",2,0.0,Cubic,227,Fd-3m,0.0,False,True
mp-540,ScFe2,"Fe, Sc",2,0.0,Cubic,227,Fd-3m,0.0,False,True
mp-2263,ScIr2,"Ir, Sc",2,0.005982141666668994,Cubic,227,Fd-3m,0.0,False,True
mp-1697,TbPt2,"Pt, Tb",2,0.0,Cubic,227,Fd-3m,0.0,False,True
mp-32895,SiO2,"O, Si",2,0.016272337638890022,Cubic,227,Fd-3m,5.7862,False,False
mp-1191437,Zr2Co,"Co, Zr",2,0.05912243416666385,Cubic,227,Fd-3m,0.0,False,True
mp-310,NpCo2,"Co, Np",2,0.0,Cubic,227,Fd-3m,0.0,False,True
mp-912,LaPt2,"La, Pt",2,0.0,Cubic,227,Fd-3m,0.0,False,True
mp-1564,NaTl,"Na, Tl",2,0.0,Cubic,227,Fd-3m,0.0,False,True
mp-921,YRh2,"Rh, Y",2,0.0,Cubic,227,Fd-3m,0.0,False,True
mp-1191415,Hf2Os,"Hf, Os",2,0.06007384625000611,Cubic,227,Fd-3m,0.0,False,True
mp-1532,NpNi2,"Ni, Np",2,0.0,Cubic,227,Fd-3m,0.0,False,True
mp-675,ZrW2,"W, Zr",2,0.0,Cubic,227,Fd-3m,0.0,False,True
mp-2031,Be2Cu,"Be, Cu",2,0.0,Cubic,227,Fd-3m,0.0,False,True
mp-1422,GdPt2,"Gd, Pt",2,0.0,Cubic,227,Fd-3m,0.0,False,True
mp-2676,TaBe2,"Be, Ta",2,0.035414196428571465,Cubic,227,Fd-3m,0.0,False,True
mp-16720,ThAl2,"Al, Th",2,0.061677241666668436,Cubic,227,Fd-3m,0.0,False,True
mp-929,ZrCo2,"Co, Zr",2,0.03591941529411713,Cubic,227,Fd-3m,0.0,False,True
mp-2363,HfMo2,"Hf, Mo",2,0.0,Cubic,227,Fd-3m,0.0,False,True
mp-2389,NdMg2,"Mg, Nd",2,0.018895289999998788,Cubic,227,Fd-3m,0.0,False,True
mp-1390196,CoSe2,"Co, Se",2,0.07343032750000056,Cubic,227,Fd-3m,0.0,True,True
mp-1201271,HfZn22,"Hf, Zn",2,0.008313229565217739,Cubic,227,Fd-3m,0.0,False,True
mp-30764,LiPt2,"Li, Pt",2,0.04333288833333171,Cubic,227,Fd-3m,0.0,False,True
mp-1463,LaIr2,"Ir, La",2,0.0,Cubic,227,Fd-3m,0.0,False,True
mp-2019,LaRu2,"La, Ru",2,0.0017812852380956201,Cubic,227,Fd-3m,0.0,False,True
mp-570811,PrRe2,"Pr, Re",2,0.09841331833333555,Cubic,227,Fd-3m,0.0,False,True
mp-21050,UFe2,"Fe, U",2,0.0,Cubic,227,Fd-3m,0.0,False,True
mp-745,ThMg2,"Mg, Th",2,0.027712816666669138,Cubic,227,Fd-3m,0.0,False,True
mp-1187,ThIr2,"Ir, Th",2,0.0,Cubic,227,Fd-3m,0.0,False,True
mp-1234,LuAl2,"Al, Lu",2,0.0,Cubic,227,Fd-3m,0.0,False,True
mp-23279,KBi2,"Bi, K",2,0.0,Cubic,227,Fd-3m,0.0,False,True
mp-1187198,SrMg2,"Mg, Sr",2,0.006025296666666291,Cubic,227,Fd-3m,0.0,True,True
mp-1061,PrPt2,"Pr, Pt",2,0.0,Cubic,227,Fd-3m,0.0,False,True
mp-1383,UCo2,"Co, U",2,0.0,Cubic,227,Fd-3m,0.0,False,True
mp-1702,LaRh2,"La, Rh",2,0.0,Cubic,227,Fd-3m,0.0,False,True
mp-2116,ZrMn2,"Mn, Zr",2,0.0,Cubic,227,Fd-3m,0.0,True,True
mp-10721,Ti2C,"C, Ti",2,0.0,Cubic,227,Fd-3m,0.0,False,True
mp-16722,Al10V,"Al, V",2,0.023455367500000435,Cubic,227,Fd-3m,0.0,False,True
mp-336,SmCo2,"Co, Sm",2,0.0,Cubic,227,Fd-3m,0.0,False,True
mp-640781,K17In41,"In, K",2,0.0,Cubic,227,Fd-3m,0.0,False,True
mp-1208,ErAl2,"Al, Er",2,0.0,Cubic,227,Fd-3m,0.0,False,True
mp-1307,LiGa,"Ga, Li",2,0.0,Cubic,227,Fd-3m,0.0,False,True
mp-391,HoAl2,"Al, Ho",2,0.0,Cubic,227,Fd-3m,0.0,False,True
mp-22460,LiIn,"In, Li",2,0.0,Cubic,227,Fd-3m,0.0,False,True
mp-514,HfZn2,"Hf, Zn",2,0.0,Cubic,227,Fd-3m,0.0,False,True
mp-1349,SrPt2,"Pt, Sr",2,0.0,Cubic,227,Fd-3m,0.0,False,True
mp-2290,NdRh2,"Nd, Rh",2,0.0,Cubic,227,Fd-3m,0.0,False,True
mp-2665,PrRu2,"Pr, Ru",2,0.003174256547616494,Cubic,227,Fd-3m,0.0,False,True
mp-646926,GdRu2,"Gd, Ru",2,0.0,Cubic,227,Fd-3m,0.0,False,True
mp-574438,ThRu2,"Ru, Th",2,0.054840385000005654,Cubic,227,Fd-3m,0.0,False,True
mp-2271,NaPt2,"Na, Pt",2,0.0,Cubic,227,Fd-3m,0.0,False,True
mp-850,ScNi2,"Ni, Sc",2,0.0,Cubic,227,Fd-3m,0.0,False,True
mp-1184321,EuMg2,"Eu, Mg",2,0.0015895274999992992,Cubic,227,Fd-3m,0.0,True,True
mp-570436,CaIr2,"Ca, Ir",2,0.0,Cubic,227,Fd-3m,0.0,False,True
mp-20456,Co3Se4,"Co, Se",2,0.0,Cubic,227,Fd-3m,0.0,False,True
mp-1038,MgCu2,"Cu, Mg",2,0.0,Cubic,227,Fd-3m,0.0,False,True
mp-2396,HoCo2,"Co, Ho",2,0.0,Cubic,227,Fd-3m,0.0,False,True
mp-2529,PrRh2,"Pr, Rh",2,0.0,Cubic,227,Fd-3m,0.0,False,True
mp-1386044,MnS2,"Mn, S",2,0.0015696991666658278,Cubic,227,Fd-3m,0.0,True,True
mp-2322,YAl2,"Al, Y",2,0.0,Cubic,227,Fd-3m,0.0,False,True
mp-1388,DyRh2,"Dy, Rh",2,0.0,Cubic,227,Fd-3m,0.0,False,True
mp-1186620,PmMg2,"Mg, Pm",2,0.02001089499999953,Cubic,227,Fd-3m,0.0,True,True
mp-2337,HfCo2,"Co, Hf",2,0.0238117552941155,Cubic,227,Fd-3m,0.0,False,True
mp-1761,LuIr2,"Ir, Lu",2,0.0,Cubic,227,Fd-3m,0.0,False,True
mp-2109,CePt2,"Ce, Pt",2,0.0,Cubic,227,Fd-3m,0.008900000000000574,False,False
mp-2404,CaAl2,"Al, Ca",2,0.0,Cubic,227,Fd-3m,0.0,False,True
mp-20628,NaIn,"In, Na",2,0.0,Cubic,227,Fd-3m,0.0,False,True
mp-556597,In3S4,"In, S",2,0.07289500857143061,Cubic,227,Fd-3m,0.0,False,True
mp-559450,FeF3,"F, Fe",2,0.02045475875000058,Cubic,227,Fd-3m,3.1326,False,False
mp-2749,TiBe2,"Be, Ti",2,0.0,Cubic,227,Fd-3m,0.0,False,True
mp-1050,Ni3S4,"Ni, S",2,0.0,Cubic,227,Fd-3m,0.0,False,True
mp-1106356,AlH3,"Al, H",2,0.010014458750000621,Cubic,227,Fd-3m,3.1106999999999996,False,False
mp-20660,NpAl2,"Al, Np",2,0.0,Cubic,227,Fd-3m,0.0,False,True
mp-755988,Hf3N4,"Hf, N",2,0.018690800357141768,Cubic,227,Fd-3m,0.9216000000000006,True,False
mp-20084,GdRh2,"Gd, Rh",2,0.0,Cubic,227,Fd-3m,0.0,False,True
mp-2085,PrCo2,"Co, Pr",2,0.0496818814197546,Cubic,227,Fd-3m,0.0,False,True
mp-276,TbNi2,"Ni, Tb",2,0.0,Cubic,227,Fd-3m,0.0,False,True
mp-1072382,YZn2,"Y, Zn",2,0.022645084999998844,Cubic,227,Fd-3m,0.0,True,True
mp-17682,Zr2Fe,"Fe, Zr",2,0.06347475358333554,Cubic,227,Fd-3m,0.0,False,True
mp-571183,TmFe2,"Fe, Tm",2,0.0,Cubic,227,Fd-3m,0.0,False,True
mp-2016,PrNi2,"Ni, Pr",2,0.012228450000001168,Cubic,227,Fd-3m,0.0,False,True
mp-2679804,WN2,"N, W",2,0.06314374583333304,Cubic,227,Fd-3m,0.6631000000000001,True,False
mp-20111,EuAl2,"Al, Eu",2,0.0,Cubic,227,Fd-3m,0.0,False,True
mp-2725,TbIr2,"Ir, Tb",2,0.0,Cubic,227,Fd-3m,0.0,False,True
mp-19923,GdAl2,"Al, Gd",2,0.0,Cubic,227,Fd-3m,0.0,False,True
mp-569364,Be22Re,"Be, Re",2,0.0,Cubic,227,Fd-3m,0.0,False,True
mp-715,ZrIr2,"Ir, Zr",2,0.07824746874999988,Cubic,227,Fd-3m,0.0,False,True