material_id,formula,elements,num_elements,energy_above_hull,crystal_system,spacegroup_number,spacegroup_symbol,band_gap,theoretical,is_metal
mp-973881,PmDy3,"Dy, Pm",2,0.03830342187500335,Tetragonal,139,I4/mmm,0.0,True,True
mp-1842,NbAl3,"Al, Nb",2,0.0,Tetragonal,139,I4/mmm,0.0,False,True
mp-978974,SnRh3,"Rh, Sn",2,0.019618336249997093,Tetragonal,139,I4/mmm,0.0,True,True
mp-1184011,Cu3Ag,"Ag, Cu",2,0.09037492083333376,Tetragonal,139,I4/mmm,0.0,True,True
mp-1184268,Ga3Hg,"Ga, Hg",2,0.07500383812499933,Tetragonal,139,I4/mmm,0.0,True,True
mp-2618,DyAg2,"Ag, Dy",2,0.0,Tetragonal,139,I4/mmm,0.0,False,True
mp-715262,FeO,"Fe, O",2,0.00928005499999962,Tetragonal,139,I4/mmm,0.0,True,True
mp-1186493,Pm3Cd,"Cd, Pm",2,0.0073094708333343306,Tetragonal,139,I4/mmm,0.0,True,True
mp-1105296,SrGe3,"Ge, Sr",2,0.08935251937499977,Tetragonal,139,I4/mmm,0.0,False,True
mp-1976,CaGa4,"Ca, Ga",2,0.0,Tetragonal,139,I4/mmm,0.0,False,True
mp-978939,Sm3Th,"Sm, Th",2,0.06993730125000042,Tetragonal,139,I4/mmm,0.0,True,True
mp-10106,Ca2As,"As, Ca",2,0.04712873611111057,Tetragonal,139,I4/mmm,0.0,False,True
mp-30883,V4Zn5,"V, Zn",2,0.0,Tetragonal,139,I4/mmm,0.0,False,True
mp-1186520,PrDy3,"Dy, Pr",2,0.046864715833336845,Tetragonal,139,I4/mmm,0.0,True,True
mp-706,HgF,"F, Hg",2,0.0,Tetragonal,139,I4/mmm,1.7704,False,False
mp-9925,Ca2Sb,"Ca, Sb",2,0.0,Tetragonal,139,I4/mmm,0.0,False,True
mp-976765,Na3Au,"Au, Na",2,0.043376689999998774,Tetragonal,139,I4/mmm,0.0,True,True
mp-1184013,GaHg3,"Ga, Hg",2,0.06658493937499799,Tetragonal,139,I4/mmm,0.0,True,True
mp-1187512,TiAu3,"Au, Ti",2,0.06300898499999619,Tetragonal,139,I4/mmm,0.0,True,True
mp-862901,PmF3,"F, Pm",2,0.0,Tetragonal,139,I4/mmm,4.9755,True,False
mp-542915,TiAl3,"Al, Ti",2,0.0,Tetragonal,139,I4/mmm,0.0,False,True
mp-863709,Ir3Rh,"Ir, Rh",2,0.0,Tetragonal,139,I4/mmm,0.0,True,True
mp-1187742,TlIn3,"In, Tl",2,0.028007442500001645,Tetragonal,139,I4/mmm,0.0,True,True
mp-979115,Ti2Ag,"Ag, Ti",2,0.0,Tetragonal,139,I4/mmm,0.0,False,True
mp-1039293,Mg3Cd,"Cd, Mg",2,0.037848721250000494,Tetragonal,139,I4/mmm,0.0,True,True
mp-23177,HgBr,"Br, Hg",2,0.0,Tetragonal,139,I4/mmm,2.2557,False,False
mp-1184650,Hf3Ga,"Ga, Hf",2,0.07348319500000144,Tetragonal,139,I4/mmm,0.0,True,True
mp-972084,TbMn12,"Mn, Tb",2,0.0043895588328908275,Tetragonal,139,I4/mmm,0.0,False,True
mp-1186526,Pm3Pr,"Pm, Pr",2,0.024317488958335076,Tetragonal,139,I4/mmm,0.0,True,True
mp-979273,TePd3,"Pd, Te",2,0.05922908173386787,Tetragonal,139,I4/mmm,0.0,True,True
mp-1184018,CuAu3,"Au, Cu",2,0.011761142499999266,Tetragonal,139,I4/mmm,0.0,True,True
mp-15697,Sr2As,"As, Sr",2,0.08000544425926037,Tetragonal,139,I4/mmm,0.0,False,True
mp-27668,Mg2Ga5,"Ga, Mg",2,0.0,Tetragonal,139,I4/mmm,0.0,False,True
mp-1183657,CdBi3,"Bi, Cd",2,0.07995573750000062,Tetragonal,139,I4/mmm,0.0,True,True
mp-1186540,Pm3Sm,"Pm, Sm",2,0.02010356437499894,Tetragonal,139,I4/mmm,0.0,True,True
mp-10201,Ge2Mo,"Ge, Mo",2,0.04528760166666501,Tetragonal,139,I4/mmm,0.0,False,True
mp-756395,V3O7,"O, V",2,0.03646761050000258,Tetragonal,139,I4/mmm,0.0,True,True
mp-972479,Sm3Sc,"Sc, Sm",2,0.058291266249998586,Tetragonal,139,I4/mmm,0.0,True,True
mp-1018177,EuC2,"C, Eu",2,0.04092897722222233,Tetragonal,139,I4/mmm,0.0,False,True
mp-1185148,KCl3,"Cl, K",2,0.05183039749999985,Tetragonal,139,I4/mmm,0.0,True,True
mp-1079938,TlPd3,"Pd, Tl",2,0.0,Tetragonal,139,I4/mmm,0.0,False,True
mp-974068,Nd3Th,"Nd, Th",2,0.07731056187500229,Tetragonal,139,I4/mmm,0.0,True,True
mp-2839,CeC2,"C, Ce",2,0.05365206874999551,Tetragonal,139,I4/mmm,0.0,False,True
mp-1184375,EuAu3,"Au, Eu",2,0.05854964666666973,Tetragonal,139,I4/mmm,0.0,True,True
mp-1009238,Hf2Tl,"Hf, Tl",2,0.0,Tetragonal,139,I4/mmm,0.0,True,True
mp-30488,CdHg2,"Cd, Hg",2,0.026849116666667783,Tetragonal,139,I4/mmm,0.0,False,True
mp-990,HoAu2,"Au, Ho",2,0.0,Tetragonal,139,I4/mmm,0.0,False,True
mp-1184336,FeIr3,"Fe, Ir",2,0.0,Tetragonal,139,I4/mmm,0.0,True,True
mp-1183658,Cd3Bi,"Bi, Cd",2,0.08853876749999978,Tetragonal,139,I4/mmm,0.0,True,True
mp-1018124,Ti2Rh,"Rh, Ti",2,0.0,Tetragonal,139,I4/mmm,0.0,False,True
mp-972170,TbY3,"Tb, Y",2,0.07750669249999831,Tetragonal,139,I4/mmm,0.0,True,True
mp-973064,LaH3,"H, La",2,0.003208850000000041,Tetragonal,139,I4/mmm,0.47079999999999966,True,False
mp-1186132,NaCa3,"Ca, Na",2,0.08148771249999953,Tetragonal,139,I4/mmm,0.0,True,True
mp-974376,PtRh3,"Pt, Rh",2,0.0,Tetragonal,139,I4/mmm,0.0,True,True
mp-31138,MnPd3,"Mn, Pd",2,0.0,Tetragonal,139,I4/mmm,0.0,False,True
mp-1866,KO2,"K, O",2,0.0,Tetragonal,139,I4/mmm,0.0,False,True
mp-1186537,Pm3Sc,"Pm, Sc",2,0.05818407062499986,Tetragonal,139,I4/mmm,0.0,True,True
mp-1186172,NaEu3,"Eu, Na",2,0.09930256586206809,Tetragonal,139,I4/mmm,0.0,True,True
mp-1018156,Hf2Cd,"Cd, Hf",2,0.0,Tetragonal,139,I4/mmm,0.0,False,True
mp-976029,Ho3Zr,"Ho, Zr",2,0.08568460749999929,Tetragonal,139,I4/mmm,0.0,True,True
mp-861975,PaO3,"O, Pa",2,0.008594786250000652,Tetragonal,139,I4/mmm,0.0,True,True
mp-1185866,MgGa3,"Ga, Mg",2,0.035344697187500884,Tetragonal,139,I4/mmm,0.0,True,True
mp-1186091,Na3Zn,"Na, Zn",2,0.09068470530835615,Tetragonal,139,I4/mmm,0.0,True,True
mp-21884,EuGa4,"Eu, Ga",2,0.0,Tetragonal,139,I4/mmm,0.0,False,True
mp-999544,YAg2,"Ag, Y",2,0.0,Tetragonal,139,I4/mmm,0.0,False,True
mp-978293,Mg3Pb,"Mg, Pb",2,0.013847861249997706,Tetragonal,139,I4/mmm,0.0,True,True
mp-1380,Zn3Ru,"Ru, Zn",2,0.0,Tetragonal,139,I4/mmm,0.0,False,True
mp-536,ThZn4,"Th, Zn",2,0.0,Tetragonal,139,I4/mmm,0.0,False,True
mp-1094514,Mg3Sn,"Mg, Sn",2,0.050043456249999174,Tetragonal,139,I4/mmm,0.0,True,True
mp-978795,Sm3Hg,"Hg, Sm",2,0.025569284999996,Tetragonal,139,I4/mmm,0.0,True,True
mp-1186535,PmAs3,"As, Pm",2,0.009554885000000013,Tetragonal,139,I4/mmm,0.0,True,True
mp-759,La2Sb,"La, Sb",2,0.0,Tetragonal,139,I4/mmm,0.0,False,True
mp-1186158,NaIn3,"In, Na",2,0.009501042499998391,Tetragonal,139,I4/mmm,0.0,True,True
mp-1196953,Tb11Ge10,"Ge, Tb",2,0.016662617023808224,Tetragonal,139,I4/mmm,0.0,False,True
mp-2614,HfAl3,"Al, Hf",2,0.013081002499998107,Tetragonal,139,I4/mmm,0.0,False,True
mp-171,VNi3,"Ni, V",2,0.0,Tetragonal,139,I4/mmm,0.0,False,True
mp-1007923,CrNi3,"Cr, Ni",2,0.04015412250000061,Tetragonal,139,I4/mmm,0.0,True,True
mp-1187457,ThSc3,"Sc, Th",2,0.05267582375000046,Tetragonal,139,I4/mmm,0.0,True,True
mp-2367,LaC2,"C, La",2,0.0,Tetragonal,139,I4/mmm,0.0,False,True
mp-1094248,YSn3,"Sn, Y",2,0.06564480749999912,Tetragonal,139,I4/mmm,0.0,True,True
mp-1185154,La3Ce,"Ce, La",2,0.0788462449999976,Tetragonal,139,I4/mmm,0.0,True,True
mp-1183408,Be3Pd,"Be, Pd",2,0.07144715125000012,Tetragonal,139,I4/mmm,0.0,True,True
mp-975795,PrTm3,"Pr, Tm",2,0.05993555208332424,Tetragonal,139,I4/mmm,0.0,True,True
mp-1183235,AcNd3,"Ac, Nd",2,0.03740125499999891,Tetragonal,139,I4/mmm,0.0,True,True
mp-1186726,Pr3Sm,"Pr, Sm",2,0.03093227875000082,Tetragonal,139,I4/mmm,0.0,True,True
mp-1183958,CsK3,"Cs, K",2,0.017413141250001374,Tetragonal,139,I4/mmm,0.0,True,True
mp-454,NaGa4,"Ga, Na",2,0.0,Tetragonal,139,I4/mmm,0.0,False,True
mp-30789,U2Mo,"Mo, U",2,0.06876029333333378,Tetragonal,139,I4/mmm,0.0,False,True
mp-1104104,Be12Fe,"Be, Fe",2,0.01828542576923109,Tetragonal,139,I4/mmm,0.0,False,True
mp-1186263,Nd3Cd,"Cd, Nd",2,0.0599086862500009,Tetragonal,139,I4/mmm,0.0,True,True
mp-11416,TaGa3,"Ga, Ta",2,0.0,Tetragonal,139,I4/mmm,0.0,False,True
mp-1007862,Fe3Ni,"Fe, Ni",2,0.07637603750000022,Tetragonal,139,I4/mmm,0.0,True,True
mp-975784,PrY3,"Pr, Y",2,0.0774129370833343,Tetragonal,139,I4/mmm,0.0,True,True
mp-982637,Na3Mg,"Mg, Na",2,0.09973374989585748,Tetragonal,139,I4/mmm,0.0,True,True
mp-1203550,Tm11Ge10,"Ge, Tm",2,0.006157022976192472,Tetragonal,139,I4/mmm,0.0,False,True
mp-1018103,ZrAu2,"Au, Zr",2,0.0,Tetragonal,139,I4/mmm,0.0,False,True
mp-1215363,Zr4Pd,"Pd, Zr",2,0.016882567999999765,Tetragonal,139,I4/mmm,0.0,True,True
mp-2643,Ti3Cu4,"Cu, Ti",2,0.0,Tetragonal,139,I4/mmm,0.0,False,True
mp-1186724,Pr3Nd,"Nd, Pr",2,0.028783311874999384,Tetragonal,139,I4/mmm,0.0,True,True
mp-973839,PdAu3,"Au, Pd",2,0.0,Tetragonal,139,I4/mmm,0.0,True,True
mp-1183241,AcPm3,"Ac, Pm",2,0.04209530250000171,Tetragonal,139,I4/mmm,0.0,True,True
mp-742,Ti2Cu,"Cu, Ti",2,0.0,Tetragonal,139,I4/mmm,0.0,False,True
mp-1185147,La3Sm,"La, Sm",2,0.025316976250000067,Tetragonal,139,I4/mmm,0.0,True,True
mp-1078755,SbPt3,"Pt, Sb",2,0.04687161687499497,Tetragonal,139,I4/mmm,0.0,False,True
mp-1183850,CeBi3,"Bi, Ce",2,0.0,Tetragonal,139,I4/mmm,0.0,True,True
mp-1184695,Ho3Er,"Er, Ho",2,0.05637952250000211,Tetragonal,139,I4/mmm,0.0,True,True
mp-1039409,CaMg3,"Ca, Mg",2,0.048412839999999235,Tetragonal,139,I4/mmm,0.0,True,True
mp-269,TmC2,"C, Tm",2,0.08949843854166861,Tetragonal,139,I4/mmm,0.0,False,True
mp-22687,BaIn4,"Ba, In",2,0.0,Tetragonal,139,I4/mmm,0.0,False,True
mp-560,TmAu2,"Au, Tm",2,0.0,Tetragonal,139,I4/mmm,0.0,False,True
mp-1220318,NbH,"H, Nb",2,0.05391118500000047,Tetragonal,139,I4/mmm,0.0,True,True
mp-1187311,Tb3Sm,"Sm, Tb",2,0.032624331249998306,Tetragonal,139,I4/mmm,0.0,True,True
mp-977366,NpSb3,"Np, Sb",2,0.0,Tetragonal,139,I4/mmm,0.0,True,True
mp-972088,Zr3Zn,"Zn, Zr",2,0.04093808500000051,Tetragonal,139,I4/mmm,0.0,True,True
mp-1185455,LiRh3,"Li, Rh",2,0.06832326749999851,Tetragonal,139,I4/mmm,0.0,True,True
mp-1187289,Sr3Eu,"Eu, Sr",2,0.06845776374999701,Tetragonal,139,I4/mmm,0.0,True,True
mp-1186820,PuSb3,"Pu, Sb",2,0.0005733287499980477,Tetragonal,139,I4/mmm,0.0,True,True
mp-1186718,Pr3Mg,"Mg, Pr",2,0.05845687416666934,Tetragonal,139,I4/mmm,0.0,True,True
mp-978531,Sc3Pb,"Pb, Sc",2,0.051050570000001017,Tetragonal,139,I4/mmm,0.0,True,True
mp-1183084,Ac3Tm,"Ac, Tm",2,0.0723079489583327,Tetragonal,139,I4/mmm,0.0,True,True
mp-30685,ZrGa3,"Ga, Zr",2,0.013019501250001397,Tetragonal,139,I4/mmm,0.0,False,True
mp-1187468,Tb3Eu,"Eu, Tb",2,0.07958243499999895,Tetragonal,139,I4/mmm,0.0,True,True
mp-981383,ScSn3,"Sc, Sn",2,0.09364912062499897,Tetragonal,139,I4/mmm,0.0,True,True
mp-32994,Hf4N3,"Hf, N",2,0.06713862142857252,Tetragonal,139,I4/mmm,0.0,True,True
mp-11252,MnAu2,"Au, Mn",2,0.0,Tetragonal,139,I4/mmm,0.0,False,True
mp-867347,Al3Tc,"Al, Tc",2,0.05980408690475869,Tetragonal,139,I4/mmm,0.0,True,True
mp-1063224,HoHg2,"Hg, Ho",2,0.06954145749999441,Tetragonal,139,I4/mmm,0.0,True,True
mp-1104193,Be12Co,"Be, Co",2,0.04868433961538443,Tetragonal,139,I4/mmm,0.0,False,True
mp-1094472,MgZr3,"Mg, Zr",2,0.019953511249998,Tetragonal,139,I4/mmm,0.0,True,True
mp-972658,SmBi3,"Bi, Sm",2,0.028845172500001404,Tetragonal,139,I4/mmm,0.0,True,True
mp-978960,Sm3Tm,"Sm, Tm",2,0.03151909249999818,Tetragonal,139,I4/mmm,0.0,True,True
mp-1187100,Sr2Mg,"Mg, Sr",2,0.015657395000000518,Tetragonal,139,I4/mmm,0.0,True,True
mp-975909,LiAu3,"Au, Li",2,0.004237167500001249,Tetragonal,139,I4/mmm,0.0,True,True
mp-1187541,Ti3In,"In, Ti",2,0.004948112499999269,Tetragonal,139,I4/mmm,0.0,True,True
mp-570578,ZrIn3,"In, Zr",2,0.0,Tetragonal,139,I4/mmm,0.0,False,True
mp-2592,Si2Mo,"Mo, Si",2,0.0,Tetragonal,139,I4/mmm,0.0,False,True
mp-1186716,Pr3Hg,"Hg, Pr",2,0.07965912249999718,Tetragonal,139,I4/mmm,0.0,True,True
mp-1186437,Pd3W,"Pd, W",2,0.011338474999998738,Tetragonal,139,I4/mmm,0.0,True,True
mp-567872,Ba2Bi,"Ba, Bi",2,0.023592227777780028,Tetragonal,139,I4/mmm,0.0,False,True
mp-976055,Li3In,"In, Li",2,0.016660156964284134,Tetragonal,139,I4/mmm,0.0,True,True
mp-541840,DyC2,"C, Dy",2,0.05472946655555955,Tetragonal,139,I4/mmm,0.0,False,True
mp-1199133,Y11Sn10,"Sn, Y",2,0.0,Tetragonal,139,I4/mmm,0.014699999999999491,False,False
mp-985551,CeY3,"Ce, Y",2,0.09207166624999985,Tetragonal,139,I4/mmm,0.0,True,True
mp-1187325,Tb3Pb,"Pb, Tb",2,0.09773373152777687,Tetragonal,139,I4/mmm,0.0,True,True
mp-2297,NdC2,"C, Nd",2,0.019172788749998837,Tetragonal,139,I4/mmm,0.0,False,True
mp-1183815,DyAg3,"Ag, Dy",2,0.03796705750000129,Tetragonal,139,I4/mmm,0.0,True,True
mp-1184016,CsRb3,"Cs, Rb",2,0.04310848696120617,Tetragonal,139,I4/mmm,0.0,True,True
mp-1186488,Pm3Ag,"Ag, Pm",2,0.08222536166666927,Tetragonal,139,I4/mmm,0.0,True,True
mp-1184633,Hf3Sn,"Hf, Sn",2,0.011843909166664446,Tetragonal,139,I4/mmm,0.0,True,True
mp-1183335,BaSr3,"Ba, Sr",2,0.01226519000000037,Tetragonal,139,I4/mmm,0.0,True,True
mp-556048,Nb2O5,"Nb, O",2,0.006534566301022338,Tetragonal,139,I4/mmm,1.5321,False,False
mp-30501,Ti2Cd,"Cd, Ti",2,0.0,Tetragonal,139,I4/mmm,0.0,False,True
mp-973174,NaAg3,"Ag, Na",2,0.07214084708333246,Tetragonal,139,I4/mmm,0.0,True,True
mp-982205,Rb3Cd,"Cd, Rb",2,0.08117697798076928,Tetragonal,139,I4/mmm,0.0,True,True
mp-984779,CeDy3,"Ce, Dy",2,0.08277064125000066,Tetragonal,139,I4/mmm,0.0,True,True
mp-1187829,Y3Th,"Th, Y",2,0.08353477749999882,Tetragonal,139,I4/mmm,0.0,True,True
mp-30009,KrF2,"F, Kr",2,0.0,Tetragonal,139,I4/mmm,0.0,False,True
mp-568912,Be12Nb,"Be, Nb",2,0.0,Tetragonal,139,I4/mmm,0.0,False,True
mp-568718,HfAl3,"Al, Hf",2,0.0,Tetragonal,139,I4/mmm,0.0,False,True
mp-1184265,GaRh3,"Ga, Rh",2,0.019763532500001624,Tetragonal,139,I4/mmm,0.0,True,True
mp-335,BaGa4,"Ba, Ga",2,0.0,Tetragonal,139,I4/mmm,0.0,False,True
mp-865856,PaBi3,"Bi, Pa",2,9.593375000349624e-05,Tetragonal,139,I4/mmm,0.0,True,True
mp-975812,PrSm3,"Pr, Sm",2,0.026284092083333377,Tetragonal,139,I4/mmm,0.0,True,True
mp-1183511,CaAg3,"Ag, Ca",2,0.07181194500000032,Tetragonal,139,I4/mmm,0.0,True,True
mp-1187278,Tb3Dy,"Dy, Tb",2,0.033101361249997296,Tetragonal,139,I4/mmm,0.0,True,True
mp-1187294,Tb3Ho,"Ho, Tb",2,0.04088016250000237,Tetragonal,139,I4/mmm,0.0,True,True
mp-1186564,Pm3Gd,"Gd, Pm",2,0.0447795118749994,Tetragonal,139,I4/mmm,0.0,True,True
mp-600003,SiO2,"O, Si",2,0.017109187638888912,Tetragonal,139,I4/mmm,5.4596,True,False
mp-865558,AcTe3,"Ac, Te",2,0.0,Tetragonal,139,I4/mmm,0.0,True,True
mp-1186315,NdHo3,"Ho, Nd",2,0.04648458437500125,Tetragonal,139,I4/mmm,0.0,True,True
mp-1202367,Nd11Sn10,"Nd, Sn",2,0.0,Tetragonal,139,I4/mmm,0.0,False,True
mp-11513,NbNi3,"Nb, Ni",2,0.00901634874999857,Tetragonal,139,I4/mmm,0.0,False,True
mp-985286,Ac2Mg,"Ac, Mg",2,0.03293054916666449,Tetragonal,139,I4/mmm,0.0,True,True
mp-862848,Pa3Al,"Al, Pa",2,0.0,Tetragonal,139,I4/mmm,0.0,True,True
mp-1903,BaAl4,"Al, Ba",2,0.0,Tetragonal,139,I4/mmm,0.0,False,True
mp-1206428,Li3Mg5,"Li, Mg",2,0.026798313125000472,Tetragonal,139,I4/mmm,0.0,True,True
mp-978535,SmDy3,"Dy, Sm",2,0.0371948612500006,Tetragonal,139,I4/mmm,0.0,True,True
mp-975298,RbNa3,"Na, Rb",2,0.07112804709051779,Tetragonal,139,I4/mmm,0.0,True,True
mp-1183090,Ac3Cd,"Ac, Cd",2,0.06833016416666737,Tetragonal,139,I4/mmm,0.0,True,True
mp-1018154,Hf2Hg,"Hf, Hg",2,0.0,Tetragonal,139,I4/mmm,0.0,False,True
mp-1187816,YAg3,"Ag, Y",2,0.05139493641304327,Tetragonal,139,I4/mmm,0.0,True,True
mp-1071453,Nd2Bi,"Bi, Nd",2,0.01581181861111247,Tetragonal,139,I4/mmm,0.0,False,True
mp-1186250,Nd2Mg,"Mg, Nd",2,0.025336357500000073,Tetragonal,139,I4/mmm,0.0,True,True
mp-21187,CaIn,"Ca, In",2,0.0,Tetragonal,139,I4/mmm,0.0,False,True
mp-1184439,EuY3,"Eu, Y",2,0.08772298249999722,Tetragonal,139,I4/mmm,0.0,True,True
mp-936219,K2O,"K, O",2,0.03945618999999967,Tetragonal,141,I4_1/amd,0.15539999999999998,True,False
mp-30802,NdZn11,"Nd, Zn",2,0.0,Tetragonal,141,I4_1/amd,0.0,False,True
mp-7790,Ti2N,"N, Ti",2,0.02086333333333279,Tetragonal,141,I4_1/amd,0.0,False,True
mp-1018026,LiAg,"Ag, Li",2,0.014274759999999276,Tetragonal,141,I4_1/amd,0.0,False,True
mp-567914,TeI4,"I, Te",2,0.006924536249999669,Tetragonal,141,I4_1/amd,1.769,False,False
mp-554267,SiO2,"O, Si",2,0.021642432222224173,Tetragonal,141,I4_1/amd,5.6122000000000005,False,False
mp-12750,SmGe2,"Ge, Sm",2,0.07837539055555531,Tetragonal,141,I4_1/amd,0.0,False,True
mp-33104,Sm2O,"O, Sm",2,0.07146804680555263,Tetragonal,141,I4_1/amd,0.0,True,True
mp-23235,UCl4,"Cl, U",2,0.0,Tetragonal,141,I4_1/amd,0.0,False,True
mp-1072248,EuSi2,"Eu, Si",2,0.0,Tetragonal,141,I4_1/amd,0.0,False,True
mp-1072982,GdGe2,"Gd, Ge",2,0.012451453333332196,Tetragonal,141,I4_1/amd,0.0,False,True
mp-27760,PrSi2,"Pr, Si",2,0.0,Tetragonal,141,I4_1/amd,0.0,False,True
mp-20800,ZrIn2,"In, Zr",2,0.0,Tetragonal,141,I4_1/amd,0.0,False,True
mp-21192,GdSi2,"Gd, Si",2,0.0,Tetragonal,141,I4_1/amd,0.0,False,True
mp-1200700,Pr3Zn22,"Pr, Zn",2,0.0,Tetragonal,141,I4_1/amd,0.0,False,True
mp-31216,BaCd11,"Ba, Cd",2,0.0,Tetragonal,141,I4_1/amd,0.0,False,True
mp-1104060,Nd2H5,"H, Nd",2,0.003805979523809455,Tetragonal,141,I4_1/amd,0.0,True,True
mp-1727,SrSi2,"Si, Sr",2,0.012737471666667943,Tetragonal,141,I4_1/amd,0.0,False,True
mp-623108,Eu4Ir,"Eu, Ir",2,0.0,Tetragonal,141,I4_1/amd,0.0,False,True
mp-1179447,SiO2,"O, Si",2,0.023373383055556474,Tetragonal,141,I4_1/amd,5.6304,True,False
mp-1102374,PuPb2,"Pb, Pu",2,0.03750095208333448,Tetragonal,141,I4_1/amd,0.0,False,True
mp-755690,NbO2,"Nb, O",2,0.08000355124999992,Tetragonal,141,I4_1/amd,0.0,True,True
mp-571191,LaZn11,"La, Zn",2,0.0,Tetragonal,141,I4_1/amd,0.0,False,True
mp-32780,AuCl,"Au, Cl",2,0.0,Tetragonal,141,I4_1/amd,1.9094,False,False
mp-22216,In2S3,"In, S",2,0.0,Tetragonal,141,I4_1/amd,0.8348999999999998,False,False
mp-570140,AuBr,"Au, Br",2,0.017815373749996866,Tetragonal,141,I4_1/amd,1.9716000000000002,False,False
mp-1214857,AuCl4,"Au, Cl",2,0.04017476850000001,Tetragonal,141,I4_1/amd,0.0019000000000000128,True,False
mp-555700,SiO2,"O, Si",2,0.017485710138890553,Tetragonal,141,I4_1/amd,5.484,True,False
mp-27953,Mo2N,"Mo, N",2,0.004063535833333631,Tetragonal,141,I4_1/amd,0.0,False,True
mp-11440,HfGa2,"Ga, Hf",2,0.0,Tetragonal,141,I4_1/amd,0.0,False,True
mp-1199143,Nd3Zn22,"Nd, Zn",2,0.0,Tetragonal,141,I4_1/amd,0.0,False,True
mp-567471,HgI2,"Hg, I",2,0.0005730233333309798,Tetragonal,141,I4_1/amd,1.3495,False,False
mp-27474,PaBr4,"Br, Pa",2,0.0,Tetragonal,141,I4_1/amd,0.18219999999999992,False,False
mp-19761,LaGe2,"Ge, La",2,0.00590201541666957,Tetragonal,141,I4_1/amd,0.0,False,True
mp-583684,EuCd11,"Cd, Eu",2,0.0,Tetragonal,141,I4_1/amd,0.0,False,True
mp-18759,Mn3O4,"Mn, O",2,0.0,Tetragonal,141,I4_1/amd,0.8571,False,False
mp-21105,PuSi2,"Pu, Si",2,0.007074570000000335,Tetragonal,141,I4_1/amd,0.0,False,True
mp-1104579,Ce2H5,"Ce, H",2,0.011713889025973145,Tetragonal,141,I4_1/amd,0.0,True,True
mp-1103021,PrPb2,"Pb, Pr",2,0.0,Tetragonal,141,I4_1/amd,0.0,False,True
mp-569954,SrCd11,"Cd, Sr",2,0.0029835499305534974,Tetragonal,141,I4_1/amd,0.0,False,True
mp-862,CaSi2,"Ca, Si",2,0.028903806666667364,Tetragonal,141,I4_1/amd,0.0,False,True
mp-1077017,HfV2,"Hf, V",2,0.038371425000001125,Tetragonal,141,I4_1/amd,0.0,True,True
mp-698212,Ce3Zn22,"Ce, Zn",2,0.0,Tetragonal,141,I4_1/amd,0.0,False,True
mp-21298,NpSi2,"Np, Si",2,0.0,Tetragonal,141,I4_1/amd,0.0,False,True
mp-2062,LaSi2,"La, Si",2,0.0,Tetragonal,141,I4_1/amd,0.0,False,True
mp-884,NdSi2,"Nd, Si",2,0.0,Tetragonal,141,I4_1/amd,0.0,False,True
mp-30682,ZrGa,"Ga, Zr",2,0.0,Tetragonal,141,I4_1/amd,0.0,False,True
mp-1219477,Sb2Te,"Sb, Te",2,0.09399586642857205,Tetragonal,141,I4_1/amd,0.0,True,True
mp-754403,ZrO2,"O, Zr",2,0.04818585999999847,Tetragonal,141,I4_1/amd,3.4821000000000004,True,False
mp-390,TiO2,"O, Ti",2,0.0,Tetragonal,141,I4_1/amd,2.0586,False,False
mp-1080295,CeSe2,"Ce, Se",2,0.09599799499999762,Tetragonal,141,I4_1/amd,0.5711999999999999,True,False
mp-23215,ThCl4,"Cl, Th",2,0.010386849999999725,Tetragonal,141,I4_1/amd,3.6672,False,False
mp-684732,Co2S3,"Co, S",2,0.02558078499999894,Tetragonal,141,I4_1/amd,0.0,True,True
mp-567814,Pu3Zn22,"Pu, Zn",2,0.0,Tetragonal,141,I4_1/amd,0.0,False,True
mp-2067,ThGa2,"Ga, Th",2,0.0,Tetragonal,141,I4_1/amd,0.0,False,True
mp-2611,BaGe2,"Ba, Ge",2,0.04968482124999962,Tetragonal,141,I4_1/amd,0.0,False,True
mp-1102067,PuSn2,"Pu, Sn",2,0.0,Tetragonal,141,I4_1/amd,0.0,False,True
mp-555521,SiO2,"O, Si",2,0.009869819583332884,Tetragonal,141,I4_1/amd,5.5805,False,False
mp-12770,DySi2,"Dy, Si",2,0.08255008983333667,Tetragonal,141,I4_1/amd,0.0,False,True
mp-1200584,La3Zn22,"La, Zn",2,0.0,Tetragonal,141,I4_1/amd,0.0,False,True
mp-553993,SiO2,"O, Si",2,0.046632540138888956,Tetragonal,141,I4_1/amd,5.6413,True,False
mp-642659,V2H,"H, V",2,0.0,Tetragonal,141,I4_1/amd,0.0,False,True
mp-1080525,FeB,"B, Fe",2,0.008399646250000004,Tetragonal,141,I4_1/amd,0.0,True,True
mp-7832,BW,"B, W",2,0.0,Tetragonal,141,I4_1/amd,0.0,False,True
mp-2831205,Cu2S,"Cu, S",2,0.09550164104166647,Tetragonal,141,I4_1/amd,0.0,True,True