material_id,formula,elements,num_elements,energy_above_hull,crystal_system,spacegroup_number,spacegroup_symbol,band_gap,theoretical,is_metal
mp-1185907,MgNi3,"Mg, Ni",2,0.09473628781250021,Hexagonal,194,P6_3/mmc,0.0,True,True
mp-1184932,In3Pb,"In, Pb",2,0.035158029999998064,Hexagonal,194,P6_3/mmc,0.0,True,True
mp-1102680,ErFe2,"Er, Fe",2,0.022474464999999277,Hexagonal,194,P6_3/mmc,0.0,False,True
mp-12657,HfAl2,"Al, Hf",2,0.0,Hexagonal,194,P6_3/mmc,0.0,False,True
mp-1186605,PmLu3,"Lu, Pm",2,0.0,Hexagonal,194,P6_3/mmc,0.0,True,True
mp-583266,MgZn,"Mg, Zn",2,0.04893152480000018,Hexagonal,194,P6_3/mmc,0.0,True,True
mp-1184723,HfZr3,"Hf, Zr",2,0.002438208750000115,Hexagonal,194,P6_3/mmc,0.0,True,True
mp-30722,ScHg3,"Hg, Sc",2,0.0,Hexagonal,194,P6_3/mmc,0.0,False,True
mp-1102302,CeOs2,"Ce, Os",2,0.0,Hexagonal,194,P6_3/mmc,0.0,False,True
mp-1187478,TiCd3,"Cd, Ti",2,0.07280399875000043,Hexagonal,194,P6_3/mmc,0.0,True,True
mp-1197654,Dy2Ni17,"Dy, Ni",2,0.0071565515789471235,Hexagonal,194,P6_3/mmc,0.0,False,True
mp-30696,Cd5Cu2,"Cd, Cu",2,0.02407703857143062,Hexagonal,194,P6_3/mmc,0.0,False,True
mp-976115,K3Rb,"K, Rb",2,0.037403925187500686,Hexagonal,194,P6_3/mmc,0.0,True,True
mp-985294,Ac3Er,"Ac, Er",2,0.07181842312500208,Hexagonal,194,P6_3/mmc,0.0,True,True
mp-865327,TmHg3,"Hg, Tm",2,0.0,Hexagonal,194,P6_3/mmc,0.0,False,True
mp-973876,PaBi3,"Bi, Pa",2,0.0,Hexagonal,194,P6_3/mmc,0.0,True,True
mp-1186267,Nd3Er,"Er, Nd",2,0.025427036041669737,Hexagonal,194,P6_3/mmc,0.0,True,True
mp-21295,Nd2In,"In, Nd",2,0.0,Hexagonal,194,P6_3/mmc,0.0,False,True
mp-1186305,NdEr3,"Er, Nd",2,0.011750423125000964,Hexagonal,194,P6_3/mmc,0.0,True,True
mp-1210170,Sc13Zn58,"Sc, Zn",2,0.0,Hexagonal,194,P6_3/mmc,0.3239000000000001,True,False
mp-974625,Re3Ru,"Re, Ru",2,0.005148133749997896,Hexagonal,194,P6_3/mmc,0.0,True,True
mp-10026,ScTe,"Sc, Te",2,0.0,Hexagonal,194,P6_3/mmc,0.0,False,True
mp-1184021,Cu3Ge,"Cu, Ge",2,0.02235081000000072,Hexagonal,194,P6_3/mmc,0.0,True,True
mp-30671,Ti2Ga,"Ga, Ti",2,0.0,Hexagonal,194,P6_3/mmc,0.0,False,True
mp-1095650,CsNa2,"Cs, Na",2,0.010571340000000262,Hexagonal,194,P6_3/mmc,0.0,False,True
mp-979355,Sm3Dy,"Dy, Sm",2,0.011017722500000104,Hexagonal,194,P6_3/mmc,0.0,True,True
mp-1183676,CdIn3,"Cd, In",2,0.04482023374999855,Hexagonal,194,P6_3/mmc,0.0,True,True
mp-568273,LiI,"I, Li",2,0.02886215250000035,Hexagonal,194,P6_3/mmc,4.2318999999999996,False,False
mp-1186231,NbIr3,"Ir, Nb",2,0.0,Hexagonal,194,P6_3/mmc,0.0,True,True
mp-1200096,Sm2Co17,"Co, Sm",2,0.0028258484210521573,Hexagonal,194,P6_3/mmc,0.0,False,True
mp-1197303,Dy13Zn58,"Dy, Zn",2,0.0,Hexagonal,194,P6_3/mmc,0.06879999999999997,False,False
mp-11449,HfMn2,"Hf, Mn",2,0.0,Hexagonal,194,P6_3/mmc,0.0,False,True
mp-1095666,TbOs2,"Os, Tb",2,0.0,Hexagonal,194,P6_3/mmc,0.0,False,True
mp-1186531,Pm3Pr,"Pm, Pr",2,0.03012084145833427,Hexagonal,194,P6_3/mmc,0.0,True,True
mp-1078766,GaFe3,"Fe, Ga",2,0.040149133749999066,Hexagonal,194,P6_3/mmc,0.0,False,True
mp-15679,CoAs,"As, Co",2,0.03356881187499994,Hexagonal,194,P6_3/mmc,0.0,False,True
mp-19856,SnPt,"Pt, Sn",2,0.0,Hexagonal,194,P6_3/mmc,0.0,False,True
mp-1101970,TbRu2,"Ru, Tb",2,0.0,Hexagonal,194,P6_3/mmc,0.0,False,True
mp-1187817,UTc3,"Tc, U",2,0.03804505375000389,Hexagonal,194,P6_3/mmc,0.0,True,True
mp-1183369,Ba3Sr,"Ba, Sr",2,0.017817212500001123,Hexagonal,194,P6_3/mmc,0.0,True,True
mp-559278,K2S,"K, S",2,0.0872531616666663,Hexagonal,194,P6_3/mmc,2.0612,False,False
mp-1183989,CsPb3,"Cs, Pb",2,0.05719688359375352,Hexagonal,194,P6_3/mmc,0.0,True,True
mp-1183844,DyHo3,"Dy, Ho",2,0.010391507500003172,Hexagonal,194,P6_3/mmc,0.0,True,True
mp-2572,SrMg2,"Mg, Sr",2,0.0,Hexagonal,194,P6_3/mmc,0.0,False,True
mp-21078,Fe3Ge,"Fe, Ge",2,0.02752385625000109,Hexagonal,194,P6_3/mmc,0.0,False,True
mp-1594,Ni2Ge,"Ge, Ni",2,0.031853958333334376,Hexagonal,194,P6_3/mmc,0.0,False,True
mp-1200616,Ho2Zn17,"Ho, Zn",2,0.007222168947367713,Hexagonal,194,P6_3/mmc,0.0,False,True
mp-319,Sm2Tl,"Sm, Tl",2,0.01396285777777262,Hexagonal,194,P6_3/mmc,0.0,False,True
mp-1186926,Ru3Rh,"Rh, Ru",2,0.0,Hexagonal,194,P6_3/mmc,0.0,True,True
mp-1094598,Li3Mg,"Li, Mg",2,0.01025391666666664,Hexagonal,194,P6_3/mmc,0.0,True,True
mp-1186286,Nd3Tm,"Nd, Tm",2,0.021263119374999917,Hexagonal,194,P6_3/mmc,0.0,True,True
mp-2225,Be2Fe,"Be, Fe",2,0.0,Hexagonal,194,P6_3/mmc,0.0,False,True
mp-1019317,TcB2,"B, Tc",2,0.0,Hexagonal,194,P6_3/mmc,0.0,False,True
mp-1077232,WN2,"N, W",2,0.09293362020833484,Hexagonal,194,P6_3/mmc,1.2238000000000007,True,False
mp-569792,CuBi,"Bi, Cu",2,0.08541994749999882,Hexagonal,194,P6_3/mmc,0.0,True,True
mp-1080055,NpH3,"H, Np",2,0.0531603374999996,Hexagonal,194,P6_3/mmc,0.0,False,True
mp-1186496,Pm3Al,"Al, Pm",2,0.0,Hexagonal,194,P6_3/mmc,0.0,True,True
mp-864754,NaIn3,"In, Na",2,0.007774994999998341,Hexagonal,194,P6_3/mmc,0.0,True,True
mp-1186499,Pm3Ag,"Ag, Pm",2,0.08596834791666907,Hexagonal,194,P6_3/mmc,0.0,True,True
mp-1186647,PmSm3,"Pm, Sm",2,0.02198041687499952,Hexagonal,194,P6_3/mmc,0.0,True,True
mp-1078964,Mg3Au,"Au, Mg",2,0.016496108333333925,Hexagonal,194,P6_3/mmc,0.0,False,True
mp-1184143,DyTm3,"Dy, Tm",2,0.0017151999999924783,Hexagonal,194,P6_3/mmc,0.0,True,True
mp-1102316,TmOs2,"Os, Tm",2,0.0,Hexagonal,194,P6_3/mmc,0.0,False,True
mp-867143,SmGa3,"Ga, Sm",2,0.0,Hexagonal,194,P6_3/mmc,0.0,True,True
mp-570430,TaCo2,"Co, Ta",2,0.045713497833332895,Hexagonal,194,P6_3/mmc,0.0,False,True
mp-1078389,MoN,"Mo, N",2,0.010758138749999091,Hexagonal,194,P6_3/mmc,0.0,False,True
mp-1187118,SnPb3,"Pb, Sn",2,0.08925198000000023,Hexagonal,194,P6_3/mmc,0.0,True,True
mp-1196805,Gd2Fe17,"Fe, Gd",2,0.018821681315788652,Hexagonal,194,P6_3/mmc,0.0,False,True
mp-1185558,CsK3,"Cs, K",2,0.012771861250000072,Hexagonal,194,P6_3/mmc,0.0,True,True
mp-1094466,Mg3Zr,"Mg, Zr",2,0.06476887374999984,Hexagonal,194,P6_3/mmc,0.0,True,True
mp-1186033,Na3Ag,"Ag, Na",2,0.08077980937500051,Hexagonal,194,P6_3/mmc,0.0,True,True
mp-30882,TiZn2,"Ti, Zn",2,0.003797694999998047,Hexagonal,194,P6_3/mmc,0.0,False,True
mp-974322,Ho3Mg,"Ho, Mg",2,0.05358727750000192,Hexagonal,194,P6_3/mmc,0.0,True,True
mp-1103373,KSn2,"K, Sn",2,0.07330974700000015,Hexagonal,194,P6_3/mmc,0.0,False,True
mp-2400,NaS,"Na, S",2,0.0,Hexagonal,194,P6_3/mmc,1.2348,False,False
mp-1079229,Mg3Pd,"Mg, Pd",2,0.02301892583333176,Hexagonal,194,P6_3/mmc,0.0,False,True
mp-1184501,GdBi3,"Bi, Gd",2,0.03404792500000209,Hexagonal,194,P6_3/mmc,0.0,True,True
mp-11527,Tm2Ni17,"Ni, Tm",2,0.00445595131578802,Hexagonal,194,P6_3/mmc,0.0,False,True
mp-2845,SbPt,"Pt, Sb",2,0.005804035624997539,Hexagonal,194,P6_3/mmc,0.0,False,True
mp-567750,ScRu2,"Ru, Sc",2,0.0,Hexagonal,194,P6_3/mmc,0.0,False,True
mp-863028,SmI3,"I, Sm",2,0.0,Hexagonal,194,P6_3/mmc,2.0141,True,False
mp-2631,Ba4Al5,"Al, Ba",2,0.0,Hexagonal,194,P6_3/mmc,0.0,False,True
mp-12600,Pr2Tl,"Pr, Tl",2,0.014744817592593051,Hexagonal,194,P6_3/mmc,0.0,False,True
mp-972549,SmLu3,"Lu, Sm",2,0.005403381250005168,Hexagonal,194,P6_3/mmc,0.0,True,True
mp-590,NiAs,"As, Ni",2,0.007765813125001131,Hexagonal,194,P6_3/mmc,0.0,False,True
mp-11557,ScRe2,"Re, Sc",2,0.0,Hexagonal,194,P6_3/mmc,0.0,False,True
mp-1094653,Mg2Ga,"Ga, Mg",2,0.083412949444444,Hexagonal,194,P6_3/mmc,0.0,True,True
mp-1186547,PrEu3,"Eu, Pr",2,0.05420640874999805,Hexagonal,194,P6_3/mmc,0.0,True,True
mp-636316,EuIn2,"Eu, In",2,0.0,Hexagonal,194,P6_3/mmc,0.0,False,True
mp-1183237,AcMg3,"Ac, Mg",2,0.032188264999998495,Hexagonal,194,P6_3/mmc,0.0,True,True
mp-1207221,In2Sb,"In, Sb",2,0.08868229166666808,Hexagonal,194,P6_3/mmc,0.0,True,True
mp-1102210,DyRe2,"Dy, Re",2,0.0,Hexagonal,194,P6_3/mmc,0.0,False,True
mp-30335,Al23V4,"Al, V",2,0.02086618962962916,Hexagonal,194,P6_3/mmc,0.0,False,True
mp-1187952,ZnAg3,"Ag, Zn",2,0.0,Hexagonal,194,P6_3/mmc,0.0,True,True
mp-21294,Y2In,"In, Y",2,0.0,Hexagonal,194,P6_3/mmc,0.0,False,True
mp-1187167,SmEu3,"Eu, Sm",2,0.06469517375000322,Hexagonal,194,P6_3/mmc,0.0,True,True
mp-10125,SbIr,"Ir, Sb",2,0.08117798062500015,Hexagonal,194,P6_3/mmc,0.0,False,True
mp-1634,MoSe2,"Mo, Se",2,0.0,Hexagonal,194,P6_3/mmc,1.3010000000000002,False,False
mp-23759,SrH2,"H, Sr",2,0.04591648916666635,Hexagonal,194,P6_3/mmc,1.3011,False,False
mp-1935,BaMg2,"Ba, Mg",2,0.0,Hexagonal,194,P6_3/mmc,0.0,False,True
mp-1389,PuAl3,"Al, Pu",2,0.014237956666672602,Hexagonal,194,P6_3/mmc,0.0,False,True
mp-1188061,Zr3Sn,"Sn, Zr",2,0.036129972499999496,Hexagonal,194,P6_3/mmc,0.0,True,True
mp-1203035,Lu2Zn17,"Lu, Zn",2,0.0054987444736851465,Hexagonal,194,P6_3/mmc,0.0,False,True
mp-2294,Al3Ir,"Al, Ir",2,0.0,Hexagonal,194,P6_3/mmc,0.0,False,True
mp-1102030,YTc2,"Tc, Y",2,0.0,Hexagonal,194,P6_3/mmc,0.0,False,True
mp-861889,Sc3Tc,"Sc, Tc",2,0.04415189656250185,Hexagonal,194,P6_3/mmc,0.0,True,True
mp-1184919,K3Na,"K, Na",2,0.02737546343750008,Hexagonal,194,P6_3/mmc,0.0,True,True
mp-974437,Re2C,"C, Re",2,0.0,Hexagonal,194,P6_3/mmc,0.0,False,True
mp-1187834,Tm3In,"In, Tm",2,0.007114376250001442,Hexagonal,194,P6_3/mmc,0.0,True,True
mp-1014,ZrMn2,"Mn, Zr",2,0.0023527791666690945,Hexagonal,194,P6_3/mmc,0.0,False,True
mp-1185460,LaGd3,"Gd, La",2,0.013754517500004226,Hexagonal,194,P6_3/mmc,0.0,True,True
mp-861487,PrHg3,"Hg, Pr",2,0.0,Hexagonal,194,P6_3/mmc,0.0,True,True
mp-1775,SnAu,"Au, Sn",2,0.0,Hexagonal,194,P6_3/mmc,0.0,False,True
mp-11499,YMg2,"Mg, Y",2,0.01142841416666629,Hexagonal,194,P6_3/mmc,0.0,False,True
mp-1185168,KRb3,"K, Rb",2,0.02857981881249949,Hexagonal,194,P6_3/mmc,0.0,True,True
mp-1769,SbPd,"Pd, Sb",2,0.0,Hexagonal,194,P6_3/mmc,0.0,False,True
mp-1186302,Nd3In,"In, Nd",2,0.010609933750000522,Hexagonal,194,P6_3/mmc,0.0,True,True
mp-1184789,InHg3,"Hg, In",2,0.022958006249993446,Hexagonal,194,P6_3/mmc,0.0,True,True
mp-20112,Ni3Sn,"Ni, Sn",2,0.000659422500000062,Hexagonal,194,P6_3/mmc,0.0,False,True
mp-985287,AgAu3,"Ag, Au",2,0.011180219999999963,Hexagonal,194,P6_3/mmc,0.0,True,True
mp-1183837,Co3Ni,"Co, Ni",2,0.0,Hexagonal,194,P6_3/mmc,0.0,True,True
mp-1066078,BiPt,"Bi, Pt",2,0.0,Hexagonal,194,P6_3/mmc,0.0,False,True
mp-2675,MgNi2,"Mg, Ni",2,0.0,Hexagonal,194,P6_3/mmc,0.0,False,True
mp-1186010,MnAu3,"Au, Mn",2,0.02679416375000443,Hexagonal,194,P6_3/mmc,0.0,True,True
mp-2557,Zr2Al,"Al, Zr",2,0.014479690999994688,Hexagonal,194,P6_3/mmc,0.0,False,True
mp-16319,Rb3Sb,"Rb, Sb",2,0.0,Hexagonal,194,P6_3/mmc,0.0878000000000001,False,False
mp-1195853,La2Ir7,"Ir, La",2,0.015095589444449331,Hexagonal,194,P6_3/mmc,0.0,False,True
mp-570007,SmOs2,"Os, Sm",2,0.0,Hexagonal,194,P6_3/mmc,0.0,False,True
mp-11281,Be2V,"Be, V",2,0.0,Hexagonal,194,P6_3/mmc,0.0,False,True
mp-1197416,Sc2Ni7,"Ni, Sc",2,0.0,Hexagonal,194,P6_3/mmc,0.0,False,True
mp-975079,MnZn3,"Mn, Zn",2,0.013461058749999921,Hexagonal,194,P6_3/mmc,0.0,True,True
mp-504,CuS,"Cu, S",2,0.00013018249999774412,Hexagonal,194,P6_3/mmc,0.0,False,True
mp-567612,ScOs2,"Os, Sc",2,0.0,Hexagonal,194,P6_3/mmc,0.0,False,True
mp-1084805,YH3,"H, Y",2,0.008567539583333783,Hexagonal,194,P6_3/mmc,0.0,True,True
mp-1184722,Ho3Th,"Ho, Th",2,0.042877670000002865,Hexagonal,194,P6_3/mmc,0.0,True,True
mp-1080608,SrIn3,"In, Sr",2,0.03182187300000061,Hexagonal,194,P6_3/mmc,0.0,False,True
mp-30491,MgCd3,"Cd, Mg",2,0.012905597916667233,Hexagonal,194,P6_3/mmc,0.0,False,True
mp-1186754,Pr3In,"In, Pr",2,0.009779873749998558,Hexagonal,194,P6_3/mmc,0.0,True,True
mp-30490,Mg3Cd,"Cd, Mg",2,0.0,Hexagonal,194,P6_3/mmc,0.0,False,True
mp-1204082,Lu2Co17,"Co, Lu",2,0.0,Hexagonal,194,P6_3/mmc,0.0,False,True
mp-1184274,ErSb3,"Er, Sb",2,0.08639936875000132,Hexagonal,194,P6_3/mmc,0.0,True,True
mp-1192321,YFe3,"Fe, Y",2,0.0006096783333333633,Hexagonal,194,P6_3/mmc,0.0,False,True
mp-862854,PaPd3,"Pa, Pd",2,0.0,Hexagonal,194,P6_3/mmc,0.0,True,True
mp-867879,SmHg3,"Hg, Sm",2,0.0,Hexagonal,194,P6_3/mmc,0.0,True,True
mp-1187884,Y3In,"In, Y",2,0.022471414999998274,Hexagonal,194,P6_3/mmc,0.0,True,True
mp-979263,ThMg3,"Mg, Th",2,0.07125463125000309,Hexagonal,194,P6_3/mmc,0.0,True,True
mp-507,SiNi2,"Ni, Si",2,0.04818693083333336,Hexagonal,194,P6_3/mmc,0.0,False,True
mp-1186362,NpCo3,"Co, Np",2,0.07943484125000211,Hexagonal,194,P6_3/mmc,0.0,True,True
mp-582709,Y13Cd58,"Cd, Y",2,0.02564518476312516,Hexagonal,194,P6_3/mmc,0.0,False,True
mp-1079393,Co3Si,"Co, Si",2,0.06883505937499912,Hexagonal,194,P6_3/mmc,0.0,False,True
mp-1202791,YZn5,"Y, Zn",2,0.013238043888888384,Hexagonal,194,P6_3/mmc,0.0,False,True
mp-862980,PmAl3,"Al, Pm",2,0.0,Hexagonal,194,P6_3/mmc,0.0,True,True
mp-1183123,Ac3Lu,"Ac, Lu",2,0.0753139281250057,Hexagonal,194,P6_3/mmc,0.0,True,True
mp-1094645,MgGa3,"Ga, Mg",2,0.03274387968750059,Hexagonal,194,P6_3/mmc,0.0,True,True
mp-1187649,Tm3Sn,"Sn, Tm",2,0.09582469083332867,Hexagonal,194,P6_3/mmc,0.0,True,True
mp-30798,NbZn2,"Nb, Zn",2,0.0,Hexagonal,194,P6_3/mmc,0.0,False,True
mp-1078234,BaGe3,"Ba, Ge",2,0.03801794718749907,Hexagonal,194,P6_3/mmc,0.0,False,True
mp-1184496,Gd3Lu,"Gd, Lu",2,0.0,Hexagonal,194,P6_3/mmc,0.0,True,True
mp-1093992,ZrN,"N, Zr",2,0.039596682500000924,Hexagonal,194,P6_3/mmc,0.0,True,True
mp-862679,TaZn2,"Ta, Zn",2,0.0,Hexagonal,194,P6_3/mmc,0.0,False,True
mp-1184145,Dy3Y,"Dy, Y",2,0.01464589708333719,Hexagonal,194,P6_3/mmc,0.0,True,True
mp-1598,Na3P,"Na, P",2,0.0,Hexagonal,194,P6_3/mmc,0.4033,False,False
mp-1094027,TmTe,"Te, Tm",2,0.0,Hexagonal,194,P6_3/mmc,0.0,False,True
mp-685136,BiF3,"Bi, F",2,0.07140110374999953,Hexagonal,194,P6_3/mmc,5.074400000000001,True,False
mp-862867,PaSe3,"Pa, Se",2,0.0,Hexagonal,194,P6_3/mmc,0.0,True,True
mp-977126,Li3Ag,"Ag, Li",2,0.0056665212499993345,Hexagonal,194,P6_3/mmc,0.0,True,True
mp-1023,Ho2Co17,"Co, Ho",2,0.0,Hexagonal,194,P6_3/mmc,0.0,False,True
mp-985437,ErLu3,"Er, Lu",2,0.004061182916672124,Hexagonal,194,P6_3/mmc,0.0,True,True
mp-1186416,PaGa3,"Ga, Pa",2,0.0,Hexagonal,194,P6_3/mmc,0.0,True,True
mp-865493,VI3,"I, V",2,0.0,Hexagonal,194,P6_3/mmc,0.0,True,True
mp-973166,NaCd3,"Cd, Na",2,0.002285523750000351,Hexagonal,194,P6_3/mmc,0.0,True,True
mp-866201,Ti3Bi,"Bi, Ti",2,0.009866854166662442,Hexagonal,194,P6_3/mmc,0.0,True,True
mp-1001835,LiB,"B, Li",2,0.0,Hexagonal,194,P6_3/mmc,0.0,False,True
mp-30783,Sr9Mg38,"Mg, Sr",2,0.010154846170212561,Hexagonal,194,P6_3/mmc,0.0,False,True
mp-976356,NdSc3,"Nd, Sc",2,0.06864229687499979,Hexagonal,194,P6_3/mmc,0.0,True,True
mp-1186525,PrEr3,"Er, Pr",2,0.023840907083332752,Hexagonal,194,P6_3/mmc,0.0,True,True
mp-974325,NdDy3,"Dy, Nd",2,0.005072960625000178,Hexagonal,194,P6_3/mmc,0.0,True,True
mp-866108,HfZn3,"Hf, Zn",2,0.0,Hexagonal,194,P6_3/mmc,0.0,True,True
mp-1196915,Tm2Zn17,"Tm, Zn",2,0.004831821315789853,Hexagonal,194,P6_3/mmc,0.0,False,True
mp-978845,Sm3Sc,"Sc, Sm",2,0.03470705499999838,Hexagonal,194,P6_3/mmc,0.0,True,True
mp-30577,CsK2,"Cs, K",2,0.007583886250001726,Hexagonal,194,P6_3/mmc,0.0,False,True
mp-1101983,NbCo2,"Co, Nb",2,0.020173794222221986,Hexagonal,194,P6_3/mmc,0.0,False,True
mp-1197933,Pr2Co7,"Co, Pr",2,0.06211861134773855,Hexagonal,194,P6_3/mmc,0.0,False,True
mp-1206927,Hf2Se,"Hf, Se",2,0.0,Hexagonal,194,P6_3/mmc,0.0,True,True
mp-1823,Ti3Al,"Al, Ti",2,0.0,Hexagonal,194,P6_3/mmc,0.0,False,True
mp-865386,GdGa3,"Ga, Gd",2,0.0,Hexagonal,194,P6_3/mmc,0.0,True,True
mp-568636,TiCr2,"Cr, Ti",2,0.0913164519444436,Hexagonal,194,P6_3/mmc,0.0,False,True
mp-1186314,NdHg3,"Hg, Nd",2,0.0,Hexagonal,194,P6_3/mmc,0.0,True,True
mp-862709,CeAg3,"Ag, Ce",2,0.04194690458333383,Hexagonal,194,P6_3/mmc,0.0,True,True
mp-1186246,PmNd3,"Nd, Pm",2,0.027994362499999426,Hexagonal,194,P6_3/mmc,0.0,True,True
mp-510439,In2Pt3,"In, Pt",2,0.0,Hexagonal,194,P6_3/mmc,0.0,False,True
mp-1186581,PmGe3,"Ge, Pm",2,0.0,Hexagonal,194,P6_3/mmc,0.0,True,True
mp-1183661,Cd3Hg,"Cd, Hg",2,0.033984154374998354,Hexagonal,194,P6_3/mmc,0.0,True,True
mp-1187028,Sm3Lu,"Lu, Sm",2,0.014631070833335258,Hexagonal,194,P6_3/mmc,0.0,True,True
mp-1186988,ScNi3,"Ni, Sc",2,0.03301964208333352,Hexagonal,194,P6_3/mmc,0.0,True,True
mp-1186964,Sc3Bi,"Bi, Sc",2,0.07328208833333338,Hexagonal,194,P6_3/mmc,0.0,True,True
mp-1187361,TbMg3,"Mg, Tb",2,0.017297541250000492,Hexagonal,194,P6_3/mmc,0.0,True,True
mp-2646976,Li3Bi,"Bi, Li",2,0.010822448749999491,Hexagonal,194,P6_3/mmc,0.4030999999999998,True,False
mp-1183847,CoPd3,"Co, Pd",2,0.04705379874999949,Hexagonal,194,P6_3/mmc,0.0,True,True
mp-1199856,TmZn5,"Tm, Zn",2,0.031621893666666345,Hexagonal,194,P6_3/mmc,0.0,False,True
mp-570904,GaNi2,"Ga, Ni",2,0.0321389691666667,Hexagonal,194,P6_3/mmc,0.0,False,True
mp-1079832,ScTe,"Sc, Te",2,0.014128253750001818,Hexagonal,194,P6_3/mmc,0.0,False,True
mp-10204,MnSe,"Mn, Se",2,0.011684177499997617,Hexagonal,194,P6_3/mmc,0.0,False,True
mp-1214417,BaC6,"Ba, C",2,0.0,Hexagonal,194,P6_3/mmc,0.0,True,True
mp-861630,Tc3Ru,"Ru, Tc",2,0.0,Hexagonal,194,P6_3/mmc,0.0,True,True
mp-1039383,CaMg3,"Ca, Mg",2,0.03320133374999923,Hexagonal,194,P6_3/mmc,0.0,True,True
mp-12748,ThMn2,"Mn, Th",2,0.07264884054598042,Hexagonal,194,P6_3/mmc,0.0,False,True
mp-30608,Er2Ni17,"Er, Ni",2,0.004864439473684534,Hexagonal,194,P6_3/mmc,0.0,False,True
mp-1184676,Hf3Sn,"Hf, Sn",2,0.0345281679166618,Hexagonal,194,P6_3/mmc,0.0,True,True
mp-1186823,PuPt3,"Pt, Pu",2,0.03704371999999445,Hexagonal,194,P6_3/mmc,0.0,True,True
mp-1186741,Pr3Tm,"Pr, Tm",2,0.03645537250000075,Hexagonal,194,P6_3/mmc,0.0,True,True
mp-1198587,Dy2Al17,"Al, Dy",2,0.08631095684210521,Hexagonal,194,P6_3/mmc,0.0,False,True
mp-862589,Re3Pt,"Pt, Re",2,0.0,Hexagonal,194,P6_3/mmc,0.0,True,True
mp-865798,GaCu3,"Cu, Ga",2,0.0,Hexagonal,194,P6_3/mmc,0.0,True,True
mp-974571,Mn3Be,"Be, Mn",2,0.086509186293104,Hexagonal,194,P6_3/mmc,0.0,True,True
mp-1184193,Er3Mg,"Er, Mg",2,0.04289904500000219,Hexagonal,194,P6_3/mmc,0.0,True,True
mp-1184419,EuAu3,"Au, Eu",2,0.038978152916671505,Hexagonal,194,P6_3/mmc,0.0,True,True
mp-1186294,NdAg3,"Ag, Nd",2,0.06883765896738936,Hexagonal,194,P6_3/mmc,0.0,True,True
mp-1187248,TaOs3,"Os, Ta",2,0.029550821249998194,Hexagonal,194,P6_3/mmc,0.0,True,True
mp-1102890,TmTc2,"Tc, Tm",2,0.0,Hexagonal,194,P6_3/mmc,0.0,False,True
mp-1791,Al5Rh2,"Al, Rh",2,0.0,Hexagonal,194,P6_3/mmc,0.0,False,True
mp-647,NbS,"Nb, S",2,0.06572968405487778,Hexagonal,194,P6_3/mmc,0.0,False,True
mp-1017510,MgTe,"Mg, Te",2,0.0548637774999996,Hexagonal,194,P6_3/mmc,0.8200000000000003,True,False
mp-1191083,HfMo2,"Hf, Mo",2,0.008370171249993064,Hexagonal,194,P6_3/mmc,0.0,False,True
mp-1094478,MgZn3,"Mg, Zn",2,0.04111436172618932,Hexagonal,194,P6_3/mmc,0.0,True,True
mp-861610,Tc3Pd,"Pd, Tc",2,0.0,Hexagonal,194,P6_3/mmc,0.0,True,True
mp-1185355,LiEu3,"Eu, Li",2,0.08208423916666518,Hexagonal,194,P6_3/mmc,0.0,True,True
mp-867907,PuSi3,"Pu, Si",2,0.08759733125000224,Hexagonal,194,P6_3/mmc,0.0,True,True
mp-865212,Fe3Re,"Fe, Re",2,0.000877158958330071,Hexagonal,194,P6_3/mmc,0.0,True,True
mp-1186713,Pr3Dy,"Dy, Pr",2,0.04080467374999941,Hexagonal,194,P6_3/mmc,0.0,True,True
mp-867212,TcOs3,"Os, Tc",2,0.0,Hexagonal,194,P6_3/mmc,0.0,True,True
mp-1949,TiMn2,"Mn, Ti",2,0.0,Hexagonal,194,P6_3/mmc,0.0,False,True
mp-1197090,Tb2Ni7,"Ni, Tb",2,0.006187982500001077,Hexagonal,194,P6_3/mmc,0.0,False,True
mp-1183742,Ce3Ga,"Ce, Ga",2,0.0011610387499985109,Hexagonal,194,P6_3/mmc,0.0,True,True
mp-1102741,PuOs2,"Os, Pu",2,0.03485810125000377,Hexagonal,194,P6_3/mmc,0.0,False,True
mp-1184681,Hf3Sc,"Hf, Sc",2,0.015776382250002996,Hexagonal,194,P6_3/mmc,0.0,True,True
mp-16775,CdCu2,"Cd, Cu",2,0.012524586666666337,Hexagonal,194,P6_3/mmc,0.0,False,True
mp-1773,ReB2,"B, Re",2,0.0,Hexagonal,194,P6_3/mmc,0.0,False,True
mp-1187672,Tm3Tl,"Tl, Tm",2,0.050951939583335104,Hexagonal,194,P6_3/mmc,0.0,True,True
mp-2215,ThHg2,"Hg, Th",2,0.0,Hexagonal,194,P6_3/mmc,0.0,False,True
mp-1187880,YTm3,"Tm, Y",2,0.01568807374999892,Hexagonal,194,P6_3/mmc,0.0,True,True
mp-1080254,Cs2Se,"Cs, Se",2,0.0733355783333316,Hexagonal,194,P6_3/mmc,1.8268999999999997,True,False
mp-841,Li2O2,"Li, O",2,0.0,Hexagonal,194,P6_3/mmc,1.9742999999999997,False,False
mp-1256614,SiO2,"O, Si",2,0.015070636111110147,Hexagonal,194,P6_3/mmc,5.7551,True,False
mp-1187755,UAl3,"Al, U",2,0.05457637874999932,Hexagonal,194,P6_3/mmc,0.0,True,True
mp-1183339,BaBr3,"Ba, Br",2,0.0785139687500025,Hexagonal,194,P6_3/mmc,0.0,True,True
mp-1184172,ErAg3,"Ag, Er",2,0.04045692472825868,Hexagonal,194,P6_3/mmc,0.0,True,True