material_id,formula,elements,num_elements,energy_above_hull,crystal_system,spacegroup_number,spacegroup_symbol,band_gap,theoretical,is_metal
mp-1220678,Nb2Pd,"Nb, Pd",2,0.0,Orthorhombic,69,Fmmm,0.0,True,True
mp-15556,Rb2As3,"As, Rb",2,0.0,Orthorhombic,69,Fmmm,0.39680000000000004,False,False
mp-1219494,ReW4,"Re, W",2,0.04740255500000501,Orthorhombic,69,Fmmm,0.0,True,True
mp-1216329,VFe4,"Fe, V",2,0.058178643999999835,Orthorhombic,69,Fmmm,0.0,True,True
mp-1220441,Nb4Rh,"Nb, Rh",2,0.08011662799999897,Orthorhombic,69,Fmmm,0.0,True,True
mp-556591,SiO2,"O, Si",2,0.020681107777779317,Orthorhombic,69,Fmmm,5.873200000000001,False,False
mp-1228952,AlFe4,"Al, Fe",2,0.09630704400000134,Orthorhombic,69,Fmmm,0.0,True,True
mp-1228006,AlV2,"Al, V",2,0.025035380833333676,Orthorhombic,69,Fmmm,0.0,True,True
mp-1226757,CdHg2,"Cd, Hg",2,0.047214349999997296,Orthorhombic,69,Fmmm,0.0,True,True
mp-1226243,Cr4Ni,"Cr, Ni",2,0.09597814100000157,Orthorhombic,69,Fmmm,0.0,True,True
mp-1217117,Ti4V,"Ti, V",2,0.09324100733333296,Orthorhombic,69,Fmmm,0.0,True,True
mp-8262,K2P3,"K, P",2,3.2265499998018754e-05,Orthorhombic,69,Fmmm,0.7095000000000002,False,False
mp-1201958,Mo8O23,"Mo, O",2,0.007169739838710498,Monoclinic,7,Pc,0.5988,False,False
mp-31311,Ga9Ir2,"Ga, Ir",2,0.0,Monoclinic,7,Pc,0.0,False,True
mp-31243,BaAs2,"As, Ba",2,0.0,Monoclinic,7,Pc,0.41449999999999987,False,False
mp-1197287,GeS2,"Ge, S",2,0.007571829513889128,Monoclinic,7,Pc,2.2279,False,False
mp-31312,Ga9Rh2,"Ga, Rh",2,0.0,Monoclinic,7,Pc,0.0,False,True
mp-38511,Ag2S,"Ag, S",2,0.03422800833333284,Monoclinic,7,Pc,0.12020000000000008,True,False
mp-715474,MoO3,"Mo, O",2,0.059622485312498696,Monoclinic,7,Pc,0.5050000000000001,True,False
mp-571547,Te2Au,"Au, Te",2,0.009720004583329,Monoclinic,7,Pc,0.0,False,True
mp-1196958,V6O13,"O, V",2,0.04493868526315836,Monoclinic,7,Pc,0.03320000000000012,False,False
mp-715584,MoO3,"Mo, O",2,0.0,Monoclinic,7,Pc,1.9098000000000002,True,False
mp-759972,VF4,"F, V",2,0.03905141399999934,Monoclinic,7,Pc,2.4943,True,False
mp-1019080,ReN2,"N, Re",2,0.07440130944444334,Monoclinic,7,Pc,0.0,True,True
mp-673245,CuI,"Cu, I",2,0.008755909583332944,Monoclinic,7,Pc,1.6210000000000004,True,False
mp-684798,Ag2Te,"Ag, Te",2,0.03606381250000368,Monoclinic,7,Pc,0.0,True,True
mp-715574,MoO3,"Mo, O",2,0.059463548437499014,Monoclinic,7,Pc,0.7662,True,False
mp-555483,SiO2,"O, Si",2,0.013546909722222722,Orthorhombic,70,Fddd,4.721699999999999,True,False
mp-20887,VSn2,"Sn, V",2,0.02662400944444343,Orthorhombic,70,Fddd,0.0,False,True
mp-755328,ZrSn2,"Sn, Zr",2,0.0,Orthorhombic,70,Fddd,0.0,False,True
mp-20296,In2Co,"Co, In",2,0.09073555722221727,Orthorhombic,70,Fddd,0.0,False,True
mp-1105684,Tb2Te3,"Tb, Te",2,0.0,Orthorhombic,70,Fddd,0.5516999999999999,False,False
mp-2582,TiSi2,"Si, Ti",2,0.027358638333332408,Orthorhombic,70,Fddd,0.0,False,True
mp-2481,Mg2Cu,"Cu, Mg",2,0.0,Orthorhombic,70,Fddd,0.0,False,True
mp-1105080,BPd6,"B, Pd",2,0.005728853571429937,Orthorhombic,70,Fddd,0.0,True,True
mp-12383,Sc2Te3,"Sc, Te",2,0.0012142619999995219,Orthorhombic,70,Fddd,0.012500000000000178,False,False
mp-9824,Ho2Se3,"Ho, Se",2,0.0,Orthorhombic,70,Fddd,1.315,False,False
mp-1189125,Lu2Se3,"Lu, Se",2,0.0,Orthorhombic,70,Fddd,1.3355,False,False
mp-568208,IrCl3,"Cl, Ir",2,0.0,Orthorhombic,70,Fddd,1.9582,False,False
mp-2131,SrN6,"N, Sr",2,0.009174299285714227,Orthorhombic,70,Fddd,3.6681,False,False
mp-1189209,Ho2Te3,"Ho, Te",2,0.0,Orthorhombic,70,Fddd,0.5307999999999997,False,False
mp-10910,Al2Ru,"Al, Ru",2,0.0,Orthorhombic,70,Fddd,0.08639999999999937,False,False
mp-567982,TaSn2,"Sn, Ta",2,0.04603517277777769,Orthorhombic,70,Fddd,0.0,False,True
mp-1189318,Tm2Se3,"Se, Tm",2,0.0,Orthorhombic,70,Fddd,1.3417000000000001,False,False
mp-569424,Cr2B,"B, Cr",2,0.06764968583333264,Orthorhombic,70,Fddd,0.0,False,True
mp-22812,In2Ir,"In, Ir",2,0.0,Orthorhombic,70,Fddd,0.0,False,True
mp-1205354,Sc2Se3,"Sc, Se",2,0.0,Orthorhombic,70,Fddd,0.6257999999999999,False,False
mp-1198490,UO3,"O, U",2,0.08282075218749974,Orthorhombic,70,Fddd,1.8782999999999994,False,False
mp-1189748,Lu2Te3,"Lu, Te",2,0.0,Orthorhombic,70,Fddd,0.5877999999999997,False,False
mp-1188427,Dy2Te3,"Dy, Te",2,0.0,Orthorhombic,70,Fddd,0.5488,False,False
mp-567889,TiGe2,"Ge, Ti",2,0.04605394783333239,Orthorhombic,70,Fddd,0.0,False,True
mp-28930,KC8,"C, K",2,0.0,Orthorhombic,70,Fddd,0.0,False,True
mp-1189791,Y2Te3,"Te, Y",2,0.0,Orthorhombic,70,Fddd,0.5592999999999995,False,False
mp-1072429,Ga2Ru,"Ga, Ru",2,0.0,Orthorhombic,70,Fddd,0.12680000000000025,False,False
mp-570875,Ga2Os,"Ga, Os",2,0.0739168072222256,Orthorhombic,70,Fddd,0.6654999999999998,False,False
mp-401,Sc2S3,"S, Sc",2,0.0,Orthorhombic,70,Fddd,1.0349999999999997,False,False
mp-569857,K2P3,"K, P",2,0.0,Orthorhombic,70,Fddd,1.0327000000000002,False,False
mp-676,CaN6,"Ca, N",2,0.04061298999999963,Orthorhombic,70,Fddd,3.4205,False,False
mp-1105821,Y2Se3,"Se, Y",2,0.0,Orthorhombic,70,Fddd,1.3157999999999999,False,False
mp-1188133,Tm2Te3,"Te, Tm",2,0.0,Orthorhombic,70,Fddd,0.5788000000000002,False,False
mp-568643,RbC8,"C, Rb",2,0.0,Orthorhombic,70,Fddd,0.0,False,True
mp-581527,Bi14Rh3,"Bi, Rh",2,0.015030314852945814,Orthorhombic,70,Fddd,0.0,False,True
mp-14643,Er2Te3,"Er, Te",2,0.0,Orthorhombic,70,Fddd,0.05210000000000026,False,False
mp-209,Er2Se3,"Er, Se",2,0.0,Orthorhombic,70,Fddd,0.7923,False,False
mp-1046,NbSn2,"Nb, Sn",2,0.0,Orthorhombic,70,Fddd,0.0,False,True
mp-1179443,SiSe2,"Se, Si",2,0.005694130416665999,Orthorhombic,72,Ibam,1.8981000000000001,False,False
mp-30851,Ti3Pt5,"Pt, Ti",2,0.0,Orthorhombic,72,Ibam,0.0,False,True
mp-1365,Ti6Ge5,"Ge, Ti",2,0.015959028727269953,Orthorhombic,72,Ibam,0.0,False,True
mp-30139,BeBr2,"Be, Br",2,0.0,Orthorhombic,72,Ibam,5.180400000000001,False,False
mp-768203,BeH2,"Be, H",2,0.0,Orthorhombic,72,Ibam,5.3844,False,False
mp-568264,SiSe2,"Se, Si",2,0.004154867083331126,Orthorhombic,72,Ibam,2.167,False,False
mp-504746,Cu5As2,"As, Cu",2,0.04714038142857113,Orthorhombic,72,Ibam,0.0,False,True
mp-23267,BeCl2,"Be, Cl",2,0.008707515833333623,Orthorhombic,72,Ibam,6.3359000000000005,False,False
mp-1602,SiS2,"S, Si",2,0.0,Orthorhombic,72,Ibam,3.1072,False,False
mp-1770,Mg5Ga2,"Ga, Mg",2,0.0,Orthorhombic,72,Ibam,0.0,False,True
mp-672313,Sc6Pb5,"Pb, Sc",2,0.0,Orthorhombic,72,Ibam,0.0,False,True
mp-600084,SiO2,"O, Si",2,0.013902802916666346,Orthorhombic,72,Ibam,5.549,True,False
mp-1209024,Sc6Sn5,"Sc, Sn",2,0.0,Orthorhombic,72,Ibam,0.0,True,True
mp-976,V6Si5,"Si, V",2,0.010512936818180663,Orthorhombic,72,Ibam,0.0,False,True
mp-570886,BeI2,"Be, I",2,0.0067352966666667236,Orthorhombic,72,Ibam,3.6032,False,False
mp-22570,Mg5In2,"In, Mg",2,0.02176974253968078,Orthorhombic,72,Ibam,0.0,False,True
mp-1210614,Lu6Pb5,"Lu, Pb",2,0.0,Orthorhombic,72,Ibam,0.0,True,True
mp-570849,Mg5Tl2,"Mg, Tl",2,0.008870449642853329,Orthorhombic,72,Ibam,0.0,False,True
mp-865014,Mg2Cu,"Cu, Mg",2,0.004629277499999418,Orthorhombic,72,Ibam,0.0,True,True
mp-15659,Sb2Pt3,"Pt, Sb",2,0.0,Orthorhombic,72,Ibam,0.0,False,True
mp-1207512,Zn3Au5,"Au, Zn",2,0.005518110781252972,Orthorhombic,72,Ibam,0.0,True,True
mp-754338,Ag2O,"Ag, O",2,0.01920252083333196,Orthorhombic,72,Ibam,0.0,True,True
mp-1192043,MgO,"Mg, O",2,0.09201163208333263,Orthorhombic,72,Ibam,3.1950999999999996,True,False
mp-1178476,Cu3O4,"Cu, O",2,0.05432879785714384,Orthorhombic,72,Ibam,0.0,True,True
mp-22858,TlI,"I, Tl",2,0.0007962224999999989,Orthorhombic,63,Cmcm,2.1452,False,False
mp-567519,NpBr3,"Br, Np",2,0.0013754524999995965,Orthorhombic,63,Cmcm,0.0,False,True
mp-1094630,MgGa2,"Ga, Mg",2,0.062204449999999856,Orthorhombic,63,Cmcm,0.0,True,True
mp-12899,HoSi,"Ho, Si",2,0.0026798625000026277,Orthorhombic,63,Cmcm,0.0,False,True
mp-558378,Pd3S,"Pd, S",2,0.0,Orthorhombic,63,Cmcm,0.0,False,True
mp-2626,Zr3Rh5,"Rh, Zr",2,0.0,Orthorhombic,63,Cmcm,0.0,False,True
mp-1039535,Ce2Mg,"Ce, Mg",2,0.0767211677777766,Orthorhombic,63,Cmcm,0.0,True,True
mp-1204410,VIr,"Ir, V",2,0.0244569559375023,Orthorhombic,63,Cmcm,0.0,True,True
mp-1104233,Ce2Te5,"Ce, Te",2,0.0,Orthorhombic,63,Cmcm,0.0,False,True
mp-11228,YAl,"Al, Y",2,0.0,Orthorhombic,63,Cmcm,0.0,False,True
mp-1039534,Ce2Mg,"Ce, Mg",2,0.08382159444444426,Orthorhombic,63,Cmcm,0.0,True,True
mp-715617,V6O13,"O, V",2,0.06267349289473678,Orthorhombic,63,Cmcm,0.0,True,True
mp-12054,Cr2B3,"B, Cr",2,0.045477424666666266,Orthorhombic,63,Cmcm,0.0,False,True
mp-8053,YCo,"Co, Y",2,0.031467607499997996,Orthorhombic,63,Cmcm,0.0,False,True
mp-2147,SrGe,"Ge, Sr",2,0.0,Orthorhombic,63,Cmcm,0.0,False,True
mp-571079,TlCl,"Cl, Tl",2,0.0,Orthorhombic,63,Cmcm,2.5181,False,False
mp-11420,YGa,"Ga, Y",2,0.0,Orthorhombic,63,Cmcm,0.0,False,True
mp-560402,U3O8,"O, U",2,0.0,Orthorhombic,63,Cmcm,0.045099999999999696,False,False
mp-865323,Tm2Mg,"Mg, Tm",2,0.0,Orthorhombic,63,Cmcm,0.0,True,True
mp-1379,SnS,"S, Sn",2,0.07615808625000042,Orthorhombic,63,Cmcm,1.2738,False,False
mp-1066254,YAu,"Au, Y",2,0.0,Orthorhombic,63,Cmcm,0.0,False,True
mp-31205,Zr3Fe,"Fe, Zr",2,0.0,Orthorhombic,63,Cmcm,0.0,False,True
mp-1087495,Tc3B,"B, Tc",2,0.0,Orthorhombic,63,Cmcm,0.0,False,True
mp-16770,Ca2Ag7,"Ag, Ca",2,0.0,Orthorhombic,63,Cmcm,0.0,False,True
mp-1185898,MgIn2,"In, Mg",2,0.012660014629628957,Orthorhombic,63,Cmcm,0.0,True,True
mp-1063670,PbSe,"Pb, Se",2,0.03863089499999717,Orthorhombic,63,Cmcm,0.9044000000000008,False,False
mp-568417,PrAl,"Al, Pr",2,0.0,Orthorhombic,63,Cmcm,0.0,False,True
mp-999305,PrRh,"Pr, Rh",2,0.0,Orthorhombic,63,Cmcm,0.17550000000000043,False,False
mp-1104890,Tm2Te5,"Te, Tm",2,0.07358629678570949,Orthorhombic,63,Cmcm,0.0,False,True
mp-1217915,TaS2,"S, Ta",2,0.01753310333332969,Orthorhombic,63,Cmcm,0.0,True,True
mp-1185857,MgAu2,"Au, Mg",2,0.014837099666663356,Orthorhombic,63,Cmcm,0.0,True,True
mp-1106153,Er3In5,"Er, In",2,0.0,Orthorhombic,63,Cmcm,0.0,False,True
mp-1094285,Sr2Mg,"Mg, Sr",2,0.08398228499999982,Orthorhombic,63,Cmcm,0.0,True,True
mp-1405,TbGe,"Ge, Tb",2,0.0,Orthorhombic,63,Cmcm,0.0,False,True
mp-999338,NdAu,"Au, Nd",2,0.0,Orthorhombic,63,Cmcm,0.0,False,True
mp-1188557,Sm3In5,"In, Sm",2,0.0,Orthorhombic,63,Cmcm,0.0,False,True
mp-2580,NbB,"B, Nb",2,0.0,Orthorhombic,63,Cmcm,0.0,False,True
mp-600098,SiO2,"O, Si",2,0.01229692114583436,Orthorhombic,63,Cmcm,5.565899999999999,True,False
mp-1094469,Mg2Zn,"Mg, Zn",2,0.08092532820000042,Orthorhombic,63,Cmcm,0.0,True,True
mp-1188074,Zn3In,"In, Zn",2,0.06645094749999991,Orthorhombic,63,Cmcm,0.0,True,True
mp-1675,Ho3Ge4,"Ge, Ho",2,0.0,Orthorhombic,63,Cmcm,0.0,False,True
mp-30604,DyGa,"Dy, Ga",2,0.0,Orthorhombic,63,Cmcm,0.0,False,True
mp-13453,BePd3,"Be, Pd",2,0.0,Orthorhombic,63,Cmcm,0.0,False,True
mp-1077503,TiSi2,"Si, Ti",2,0.0,Orthorhombic,63,Cmcm,0.0,False,True
mp-568992,ZrIr,"Ir, Zr",2,0.0,Orthorhombic,63,Cmcm,0.0,False,True
mp-13010,YSn2,"Sn, Y",2,0.0,Orthorhombic,63,Cmcm,0.0,False,True
mp-1094981,MgBi2,"Bi, Mg",2,0.07267076333333211,Orthorhombic,63,Cmcm,0.0,True,True
mp-999145,SmNi,"Ni, Sm",2,0.0,Orthorhombic,63,Cmcm,0.0,False,True
mp-628773,SnSe,"Se, Sn",2,0.07587804124999664,Orthorhombic,63,Cmcm,0.4429000000000003,True,False
mp-568616,Nb2Br5,"Br, Nb",2,0.0805685504464293,Orthorhombic,63,Cmcm,0.0,True,True
mp-1077479,EuBi2,"Bi, Eu",2,0.0,Orthorhombic,63,Cmcm,0.0,False,True
mp-1039357,CeMg2,"Ce, Mg",2,0.05109870277777695,Orthorhombic,63,Cmcm,0.0,True,True
mp-1208462,Tb3Ge4,"Ge, Tb",2,0.0,Orthorhombic,63,Cmcm,0.0,True,True
mp-1094198,MgZn2,"Mg, Zn",2,0.08034514499999879,Orthorhombic,63,Cmcm,0.0,True,True
mp-1001612,LuSi,"Lu, Si",2,0.0,Orthorhombic,63,Cmcm,0.0,False,True
mp-30872,ThSn2,"Sn, Th",2,0.0,Orthorhombic,63,Cmcm,0.0,False,True
mp-1097,TaB,"B, Ta",2,0.0,Orthorhombic,63,Cmcm,0.0,False,True
mp-542632,GdNi,"Gd, Ni",2,0.0,Orthorhombic,63,Cmcm,0.0,False,True
mp-976425,Nd2Mg,"Mg, Nd",2,0.013947642499999802,Orthorhombic,63,Cmcm,0.0,True,True
mp-971684,C3N4,"C, N",2,0.08975931392856928,Orthorhombic,63,Cmcm,1.1814999999999998,True,False
mp-20712,EuGe,"Eu, Ge",2,0.0,Orthorhombic,63,Cmcm,0.0,False,True
mp-1105026,Ho2Te5,"Ho, Te",2,0.05976644285713917,Orthorhombic,63,Cmcm,0.0,False,True
mp-1189902,Tb3Tl5,"Tb, Tl",2,0.0,Orthorhombic,63,Cmcm,0.0,False,True
mp-1002133,LaGa,"Ga, La",2,0.0,Orthorhombic,63,Cmcm,0.0,False,True
mp-20576,Ge2Pt3,"Ge, Pt",2,0.004767136750004397,Orthorhombic,63,Cmcm,0.0,False,True
mp-1084847,TbTe3,"Tb, Te",2,0.0,Orthorhombic,63,Cmcm,0.0,False,True
mp-16372,ThGe2,"Ge, Th",2,0.025635855000004426,Orthorhombic,63,Cmcm,0.0,False,True
mp-1039317,Ca2Mg,"Ca, Mg",2,0.02264124749999996,Orthorhombic,63,Cmcm,0.0,True,True
mp-1094757,MgCd2,"Cd, Mg",2,0.03903750722222199,Orthorhombic,63,Cmcm,0.0,True,True
mp-1106334,Sm3Tl5,"Sm, Tl",2,0.0,Orthorhombic,63,Cmcm,0.0,False,True
mp-173,MnAl6,"Al, Mn",2,0.0,Orthorhombic,63,Cmcm,0.0,False,True
mp-1078585,GdAl,"Al, Gd",2,0.0017623497499990037,Orthorhombic,63,Cmcm,0.0,False,True
mp-30854,UPt2,"Pt, U",2,0.0,Orthorhombic,63,Cmcm,0.0,False,True
mp-12910,GeS,"Ge, S",2,0.0761541225000002,Orthorhombic,63,Cmcm,0.5488,True,False
mp-1536913,HF,"F, H",2,0.0,Orthorhombic,63,Cmcm,6.9686,True,False
mp-1094804,MgCd2,"Cd, Mg",2,0.009266233888889586,Orthorhombic,63,Cmcm,0.0,True,True
mp-1094440,Mg2Zn,"Mg, Zn",2,0.046294391533334034,Orthorhombic,63,Cmcm,0.0,True,True
mp-559906,U3O8,"O, U",2,0.003075063181819715,Orthorhombic,63,Cmcm,0.0,False,True
mp-30408,MgAu3,"Au, Mg",2,0.001985315124994891,Orthorhombic,63,Cmcm,0.0,False,True
mp-27932,Li9Ge4,"Ge, Li",2,0.0032214326923072356,Orthorhombic,63,Cmcm,0.0,False,True
mp-1080689,LuTe3,"Lu, Te",2,0.0,Orthorhombic,63,Cmcm,0.0,False,True
mp-600052,SiO2,"O, Si",2,0.015849241555555338,Orthorhombic,63,Cmcm,5.4991,True,False
mp-11799,PrNi,"Ni, Pr",2,0.0,Orthorhombic,63,Cmcm,0.0,False,True
mp-1017507,TmAu,"Au, Tm",2,0.0,Orthorhombic,63,Cmcm,0.0,False,True
mp-569480,URe2,"Re, U",2,0.0,Orthorhombic,63,Cmcm,0.0,False,True
mp-999198,BMo,"B, Mo",2,0.010615728750000386,Orthorhombic,63,Cmcm,0.0,False,True
mp-663,NdGe,"Ge, Nd",2,0.0,Orthorhombic,63,Cmcm,0.0,False,True
mp-21093,SrPb,"Pb, Sr",2,0.0,Orthorhombic,63,Cmcm,0.0,False,True
mp-31324,Li2In,"In, Li",2,0.0,Orthorhombic,63,Cmcm,0.0,False,True
mp-17381,Y3Ge4,"Ge, Y",2,0.0,Orthorhombic,63,Cmcm,0.0,False,True
mp-30485,Ca3Zn,"Ca, Zn",2,0.01449339624999979,Orthorhombic,63,Cmcm,0.0,False,True
mp-27976,SmBr3,"Br, Sm",2,0.0,Orthorhombic,63,Cmcm,3.016,False,False
mp-2661,SrSi,"Si, Sr",2,0.0,Orthorhombic,63,Cmcm,0.0,False,True
mp-613,Te2Pd3,"Pd, Te",2,0.0,Orthorhombic,63,Cmcm,0.0,False,True
mp-1094574,LiMg2,"Li, Mg",2,0.038412115000000746,Orthorhombic,63,Cmcm,0.0,True,True
mp-1189763,Dy3Tl5,"Dy, Tl",2,0.0007748862499994402,Orthorhombic,63,Cmcm,0.0,False,True
mp-1397279,Sr2Mg,"Mg, Sr",2,0.028869791666666478,Orthorhombic,63,Cmcm,0.0,True,True
mp-1094878,MgBi2,"Bi, Mg",2,0.07979651833333223,Orthorhombic,63,Cmcm,0.0,True,True
mp-640118,CeZn3,"Ce, Zn",2,0.001062429375000118,Orthorhombic,63,Cmcm,0.0,False,True
mp-29210,Li2Ga,"Ga, Li",2,0.0,Orthorhombic,63,Cmcm,0.0,False,True
mp-12775,ThRu,"Ru, Th",2,0.0,Orthorhombic,63,Cmcm,0.0,False,True
mp-21279,EuSi,"Eu, Si",2,0.0,Orthorhombic,63,Cmcm,0.0,False,True
mp-1072259,LuSn2,"Lu, Sn",2,0.0,Orthorhombic,63,Cmcm,0.0,False,True
mp-872,BaSn,"Ba, Sn",2,0.0,Orthorhombic,63,Cmcm,0.0,False,True
mp-1025422,HoGe3,"Ge, Ho",2,0.01523896791666779,Orthorhombic,63,Cmcm,0.0,True,True
mp-511,PrGe,"Ge, Pr",2,0.0010985812499981762,Orthorhombic,63,Cmcm,0.0,False,True
mp-1104486,Tm3Ge4,"Ge, Tm",2,0.0,Orthorhombic,63,Cmcm,0.0,False,True
mp-1189532,Th3In5,"In, Th",2,0.0,Orthorhombic,63,Cmcm,0.0,False,True
mp-1185754,Mg2Ag,"Ag, Mg",2,0.015098881666666841,Orthorhombic,63,Cmcm,0.0,True,True
mp-1207393,Zr3Ga5,"Ga, Zr",2,0.0,Orthorhombic,63,Cmcm,0.0,False,True
mp-1212972,Dy3In5,"Dy, In",2,0.0,Orthorhombic,63,Cmcm,0.0,False,True
mp-1185798,Mg2In,"In, Mg",2,0.0688558642592576,Orthorhombic,63,Cmcm,0.0,True,True
mp-12774,ThIr,"Ir, Th",2,0.0,Orthorhombic,63,Cmcm,0.0,False,True
mp-1016109,ZrZn16,"Zn, Zr",2,0.01426924735294044,Orthorhombic,63,Cmcm,0.0,True,True
mp-559871,AlF3,"Al, F",2,0.0106335370833337,Orthorhombic,63,Cmcm,7.5230999999999995,False,False
mp-23244,UI3,"I, U",2,0.0,Orthorhombic,63,Cmcm,0.0,False,True
mp-945077,YTe3,"Te, Y",2,0.0,Orthorhombic,63,Cmcm,0.0,False,True
mp-29772,YGe3,"Ge, Y",2,0.049184030416668634,Orthorhombic,63,Cmcm,0.0,False,True
mp-999130,TbNi,"Ni, Tb",2,0.00021758833333418437,Orthorhombic,63,Cmcm,0.0,False,True
mp-27975,NdBr3,"Br, Nd",2,0.0,Orthorhombic,63,Cmcm,2.9221,False,False
mp-1094403,YMg2,"Mg, Y",2,0.07043669166666655,Orthorhombic,63,Cmcm,0.0,True,True
mp-973374,LiMg2,"Li, Mg",2,0.02857837166666677,Orthorhombic,63,Cmcm,0.0,True,True
mp-14019,NiB,"B, Ni",2,0.0018463106250017347,Orthorhombic,63,Cmcm,0.0,False,True
mp-1094936,Mg2Cd,"Cd, Mg",2,0.009775568611110952,Orthorhombic,63,Cmcm,0.0,True,True
mp-540660,Nb4As3,"As, Nb",2,0.025108208482146566,Orthorhombic,63,Cmcm,0.0,False,True
mp-29667,Si2Ni3,"Ni, Si",2,0.003400225500001852,Orthorhombic,63,Cmcm,0.0,True,True
mp-570858,AgCl,"Ag, Cl",2,0.028544702500001407,Orthorhombic,63,Cmcm,0.44379999999999975,False,False
mp-27979,LaI3,"I, La",2,0.0,Orthorhombic,63,Cmcm,2.0709,False,False
mp-1205298,Tb2Si3,"Si, Tb",2,0.0,Orthorhombic,63,Cmcm,0.0,False,True
mp-1104180,Pr2Te5,"Pr, Te",2,0.03375574357142597,Orthorhombic,63,Cmcm,0.0,False,True
mp-1025426,CeI3,"Ce, I",2,0.0,Orthorhombic,63,Cmcm,0.0,True,True
mp-999124,TbPd,"Pd, Tb",2,0.0013603162500004373,Orthorhombic,63,Cmcm,0.0,False,True
mp-1078991,ErTe3,"Er, Te",2,0.026606616250003157,Orthorhombic,63,Cmcm,0.0,False,True
mp-1094163,LaMg2,"La, Mg",2,0.08753851083333375,Orthorhombic,63,Cmcm,0.0,True,True
mp-1105801,Er3Tl5,"Er, Tl",2,0.011885468125000909,Orthorhombic,63,Cmcm,0.0,False,True
mp-1188242,Ho3Tl5,"Ho, Tl",2,0.004081896875000268,Orthorhombic,63,Cmcm,0.0,False,True
mp-1002136,LaAu,"Au, La",2,0.0,Orthorhombic,63,Cmcm,0.0,False,True
mp-569752,UPt,"Pt, U",2,0.0,Orthorhombic,63,Cmcm,0.0,False,True
mp-11295,DyCd3,"Cd, Dy",2,0.0,Orthorhombic,63,Cmcm,0.0,False,True
mp-600032,SiO2,"O, Si",2,0.02155678277777895,Orthorhombic,63,Cmcm,5.7155000000000005,True,False
mp-600111,SiO2,"O, Si",2,0.01905889520833348,Orthorhombic,63,Cmcm,5.5173000000000005,True,False
mp-9208,V2B3,"B, V",2,0.0,Orthorhombic,63,Cmcm,0.0,False,True
mp-560527,SiO2,"O, Si",2,0.01902866722222285,Orthorhombic,63,Cmcm,5.3907,True,False
mp-19918,GdGe,"Gd, Ge",2,0.0,Orthorhombic,63,Cmcm,0.0,False,True
mp-999336,NdPd,"Nd, Pd",2,0.0,Orthorhombic,63,Cmcm,0.0,False,True
mp-2327,TiZn16,"Ti, Zn",2,0.0,Orthorhombic,63,Cmcm,0.0,False,True
mp-559676,SnS,"S, Sn",2,0.028504053749998093,Orthorhombic,63,Cmcm,0.31130000000000013,False,False
mp-1188678,Fe4O5,"Fe, O",2,0.08958939111111341,Orthorhombic,63,Cmcm,0.0,False,True
mp-567181,ZrRh,"Rh, Zr",2,0.0005148862499986251,Orthorhombic,63,Cmcm,0.0,False,True
mp-1094521,MgSn2,"Mg, Sn",2,0.08361634750000047,Orthorhombic,63,Cmcm,0.0,True,True
mp-1078612,LaTe3,"La, Te",2,0.0,Orthorhombic,63,Cmcm,0.0,False,True
mp-1094209,Mg2Sn,"Mg, Sn",2,0.09421770666666607,Orthorhombic,63,Cmcm,0.0,True,True
mp-27974,PuBr3,"Br, Pu",2,0.0,Orthorhombic,63,Cmcm,0.0,False,True
mp-22870,InBr,"Br, In",2,0.0,Orthorhombic,63,Cmcm,1.2570999999999999,False,False
mp-2360,CaGe,"Ca, Ge",2,0.0,Orthorhombic,63,Cmcm,0.0,False,True
mp-13495,ZrPd,"Pd, Zr",2,0.0,Orthorhombic,63,Cmcm,0.0,False,True
mp-1039259,Ce2Mg,"Ce, Mg",2,0.09137372194444637,Orthorhombic,63,Cmcm,0.0,True,True
mp-1078836,KI,"I, K",2,0.019311022500000163,Orthorhombic,63,Cmcm,3.7452,True,False
mp-7303,ErCd3,"Cd, Er",2,0.0,Orthorhombic,63,Cmcm,0.0,False,True
mp-1537871,Ag2S,"Ag, S",2,0.003564074999999889,Orthorhombic,63,Cmcm,0.9753000000000001,True,False
mp-260,CrB,"B, Cr",2,0.010095695000000404,Orthorhombic,63,Cmcm,0.0,False,True
mp-754556,Nb3N5,"N, Nb",2,0.01460937796874795,Orthorhombic,63,Cmcm,0.6958000000000002,True,False
mp-1018057,HfBe,"Be, Hf",2,0.0590801495000024,Orthorhombic,63,Cmcm,0.0,False,True
mp-1079460,Ti3Sn,"Sn, Ti",2,0.0,Orthorhombic,63,Cmcm,0.0,False,True
mp-28448,DyCl3,"Cl, Dy",2,0.0,Orthorhombic,63,Cmcm,3.8954,False,False
mp-570112,Cr3C2,"C, Cr",2,0.03457126400000199,Orthorhombic,63,Cmcm,0.0,False,True
mp-1002104,LaPt,"La, Pt",2,0.0,Orthorhombic,63,Cmcm,0.0,False,True