material_id,formula,elements,num_elements,energy_above_hull,crystal_system,spacegroup_number,spacegroup_symbol,band_gap,theoretical,is_metal
mp-28301,OsBr4,"Br, Os",2,0.0,Orthorhombic,61,Pbca,0.0,False,True
mp-1321,CdSb,"Cd, Sb",2,0.0,Orthorhombic,61,Pbca,0.020099999999999785,False,False
mp-776490,Al2O3,"Al, O",2,0.046347576749999675,Orthorhombic,61,Pbca,5.4415000000000004,True,False
mp-669496,PtI4,"I, Pt",2,0.0,Orthorhombic,61,Pbca,0.6934,False,False
mp-27876,B2H3,"B, H",2,0.03457064714772695,Orthorhombic,61,Pbca,3.074,False,False
mp-1147712,CuS2,"Cu, S",2,0.039730477500000916,Orthorhombic,61,Pbca,0.0,True,True
mp-680395,Li3As7,"As, Li",2,0.000924287437500837,Orthorhombic,61,Pbca,1.3268999999999997,False,False
mp-1204799,Tc2Te5,"Tc, Te",2,0.0,Orthorhombic,61,Pbca,0.5259999999999998,False,False
mp-2418,PdSe2,"Pd, Se",2,0.0,Orthorhombic,61,Pbca,0.4001000000000001,False,False
mp-13682,PdS2,"Pd, S",2,0.0,Orthorhombic,61,Pbca,0.4209999999999998,False,False
mp-613620,Rh2O3,"O, Rh",2,0.0012415312499989284,Orthorhombic,61,Pbca,0.23749999999999982,False,False
mp-1858,HfO2,"Hf, O",2,0.016383926250000513,Orthorhombic,61,Pbca,4.2272,False,False
mp-1094031,VO2,"O, V",2,0.01189598708331907,Orthorhombic,61,Pbca,0.8860999999999999,True,False
mp-680413,Rb3As7,"As, Rb",2,0.0,Orthorhombic,61,Pbca,1.4234,False,False
mp-2284,AgF2,"Ag, F",2,0.0,Orthorhombic,61,Pbca,0.0,False,True
mp-568531,Bi2Pt,"Bi, Pt",2,0.0,Orthorhombic,61,Pbca,0.0,False,True
mp-505510,NiAs2,"As, Ni",2,0.0031899970833340063,Orthorhombic,61,Pbca,0.0,False,True
mp-753,ZnSb,"Sb, Zn",2,0.0,Orthorhombic,61,Pbca,0.028200000000000003,False,False
mp-776404,ZrO2,"O, Zr",2,0.009497303333333207,Orthorhombic,61,Pbca,3.4628999999999994,True,False
mp-23181,SrI2,"I, Sr",2,0.00957660791667081,Orthorhombic,61,Pbca,3.8415,False,False
mp-570480,TcBr4,"Br, Tc",2,0.0,Orthorhombic,61,Pbca,0.6025,False,False
mp-776890,Rb2O,"O, Rb",2,0.014070498333333514,Orthorhombic,61,Pbca,0.9376,True,False
mp-27267,ReP4,"P, Re",2,0.0,Orthorhombic,61,Pbca,0.7559000000000005,False,False
mp-27844,NiP,"Ni, P",2,0.01609372979166679,Orthorhombic,61,Pbca,0.0,False,True
mp-28026,TcP4,"P, Tc",2,0.0,Orthorhombic,61,Pbca,0.8481000000000005,False,False
mp-776016,K2O,"K, O",2,0.020421303750000064,Orthorhombic,61,Pbca,1.3316,True,False
mp-1462,Sn2Au,"Au, Sn",2,0.00021170416666649317,Orthorhombic,61,Pbca,0.0,False,True
mp-573631,Cs3As7,"As, Cs",2,0.0,Orthorhombic,61,Pbca,1.5702999999999998,False,False
mp-850049,CoS2,"Co, S",2,0.0018982358333339278,Orthorhombic,61,Pbca,0.0,True,True
mp-1180346,NaO2,"Na, O",2,0.019507869583332393,Orthorhombic,61,Pbca,0.0,False,True
mp-775906,Y2O3,"O, Y",2,0.058289611500001115,Orthorhombic,61,Pbca,4.3921,True,False
mp-680655,Zr7Ni10,"Ni, Zr",2,0.01354697161764662,Orthorhombic,61,Pbca,0.0,False,True
mp-1180165,NaO2,"Na, O",2,0.07653474791666603,Orthorhombic,61,Pbca,0.0,True,True
mp-863730,KTl,"K, Tl",2,0.0026281431944445988,Orthorhombic,64,Cmce,0.11549999999999994,False,False
mp-1200191,Ga21Rh4,"Ga, Rh",2,0.0024304882999999222,Orthorhombic,64,Cmce,0.0,False,True
mp-1371,Sn3Pd,"Pd, Sn",2,0.048158374999999864,Orthorhombic,64,Cmce,0.0,False,True
mp-1105231,Ba5P4,"Ba, P",2,0.0,Orthorhombic,64,Cmce,0.9422000000000001,False,False
mp-600041,SiO2,"O, Si",2,0.02109452034722281,Orthorhombic,64,Cmce,5.465199999999999,True,False
mp-32758,Ag2Se,"Ag, Se",2,0.03979766333333146,Orthorhombic,64,Cmce,0.0,True,True
mp-1191883,LiTl,"Li, Tl",2,0.09075718458333171,Orthorhombic,64,Cmce,0.0,False,True
mp-667377,SiO2,"O, Si",2,0.014079786964286356,Orthorhombic,64,Cmce,5.3943,True,False
mp-637255,Ti2Sn3,"Sn, Ti",2,0.0,Orthorhombic,64,Cmce,0.0,False,True
mp-29647,SmSb2,"Sb, Sm",2,0.0289560774999984,Orthorhombic,64,Cmce,0.0,False,True
mp-2456335,PbBr2,"Br, Pb",2,0.0,Orthorhombic,64,Cmce,2.6426999999999996,True,False
mp-569054,La2Co3,"Co, La",2,0.011483044723682667,Orthorhombic,64,Cmce,0.0,False,True
mp-667376,SiO2,"O, Si",2,0.01207937089285771,Orthorhombic,64,Cmce,5.3896999999999995,True,False
mp-32791,Ag2S,"Ag, S",2,0.09402345166666848,Orthorhombic,64,Cmce,0.0,True,True
mp-545820,SnO,"O, Sn",2,0.0008266587500003197,Orthorhombic,64,Cmce,0.0,True,True
mp-856161,CoO2,"Co, O",2,0.08908489499999916,Orthorhombic,64,Cmce,0.0,True,True
mp-1102139,NdSb2,"Nd, Sb",2,0.015535771666669973,Orthorhombic,64,Cmce,0.0,False,True
mp-1714,FeSi2,"Fe, Si",2,0.0,Orthorhombic,64,Cmce,0.6966000000000001,False,False
mp-1188077,Zr7Cu10,"Cu, Zr",2,0.0,Orthorhombic,64,Cmce,0.0,True,True
mp-600051,SiO2,"O, Si",2,0.021672997638889413,Orthorhombic,64,Cmce,5.5706,True,False
mp-1103044,Sn2Rh,"Rh, Sn",2,0.0,Orthorhombic,64,Cmce,0.0,False,True
mp-1250551,SiO2,"O, Si",2,0.012524846130951062,Orthorhombic,64,Cmce,5.6892,True,False
mp-17123,Si2Os,"Os, Si",2,0.0,Orthorhombic,64,Cmce,0.6496999999999993,False,False
mp-27765,W3Br8,"Br, W",2,0.06262866575757542,Orthorhombic,64,Cmce,0.0,False,True
mp-1106198,Eu5As4,"As, Eu",2,0.03136872425925752,Orthorhombic,64,Cmce,0.0,False,True
mp-1084826,Nd2Co3,"Co, Nd",2,0.0,Orthorhombic,64,Cmce,0.0,False,True
mp-600065,SiO2,"O, Si",2,0.0251340437500005,Orthorhombic,64,Cmce,5.3276,True,False
mp-651870,Pb3O5,"O, Pb",2,0.04227702562499758,Orthorhombic,64,Cmce,0.7503000000000002,True,False
mp-1102456,PuSb2,"Pu, Sb",2,0.0,Orthorhombic,64,Cmce,0.0,False,True
mp-1207889,WI2,"I, W",2,0.0,Orthorhombic,64,Cmce,1.9577999999999998,True,False
mp-29498,WBr2,"Br, W",2,0.0,Orthorhombic,64,Cmce,2.4687,False,False
mp-1208176,Zn61Pd8,"Pd, Zn",2,0.0,Orthorhombic,64,Cmce,0.0,True,True
mp-570686,SnBi,"Bi, Sn",2,0.03540421500000068,Orthorhombic,64,Cmce,0.0,True,True
mp-683946,MgIr,"Ir, Mg",2,0.0,Orthorhombic,64,Cmce,0.0,False,True
mp-1198091,Hf7Ni10,"Hf, Ni",2,0.017634224500000073,Orthorhombic,64,Cmce,0.0,True,True
mp-23238,Ta3I7,"I, Ta",2,0.0,Orthorhombic,64,Cmce,0.8864000000000001,False,False
mp-600045,SiO2,"O, Si",2,0.02250931597222383,Orthorhombic,64,Cmce,5.4237,True,False
mp-30045,CoGe2,"Co, Ge",2,0.017875628333333893,Orthorhombic,64,Cmce,0.0,False,True
mp-1207828,WCl2,"Cl, W",2,0.0,Orthorhombic,64,Cmce,2.8217000000000003,True,False
mp-1237690,LiTl,"Li, Tl",2,0.07905951291666469,Orthorhombic,64,Cmce,0.0,False,True
mp-1212463,Hf7Au10,"Au, Hf",2,0.0,Orthorhombic,64,Cmce,0.0,True,True
mp-1207440,Zr7Pt10,"Pt, Zr",2,0.0,Orthorhombic,64,Cmce,0.0,True,True
mp-640708,FeGe2,"Fe, Ge",2,0.07725995972222321,Orthorhombic,64,Cmce,0.0,True,True
mp-1101942,LaSb2,"La, Sb",2,0.0,Orthorhombic,64,Cmce,0.0,False,True
mp-1200988,Hf7Cu10,"Cu, Hf",2,0.0,Orthorhombic,64,Cmce,0.0,True,True
mp-1198690,MoI2,"I, Mo",2,0.0,Orthorhombic,64,Cmce,1.6796000000000002,False,False
mp-32811,Ag2Te,"Ag, Te",2,0.041975696666664675,Orthorhombic,64,Cmce,0.0,True,True
mp-656852,Ti13O22,"O, Ti",2,0.028261225321429606,Orthorhombic,64,Cmce,0.0,True,True
mp-1192187,NaTl,"Na, Tl",2,0.04371163749999596,Orthorhombic,64,Cmce,0.0,False,True
mp-1077906,CO2,"C, O",2,0.007274903333332361,Orthorhombic,64,Cmce,6.5856,False,False
mp-27880,Nb3Cl7,"Cl, Nb",2,0.0,Orthorhombic,64,Cmce,0.9765000000000001,False,False
mp-569815,Si2Ru,"Ru, Si",2,0.0,Orthorhombic,64,Cmce,0.4067000000000007,True,False
mp-1102986,CeSb2,"Ce, Sb",2,0.0,Orthorhombic,64,Cmce,0.0,False,True
mp-1183777,CoSn3,"Co, Sn",2,0.003337823749999025,Orthorhombic,64,Cmce,0.0,False,True
mp-29900,NiGe2,"Ge, Ni",2,0.08540651333333216,Orthorhombic,64,Cmce,0.0,False,True
mp-559313,SiO2,"O, Si",2,0.017870901805556727,Orthorhombic,64,Cmce,5.5709,True,False
mp-581951,Zn53Ni16,"Ni, Zn",2,0.0,Orthorhombic,64,Cmce,0.0,True,True
mp-10089,Ba5Sb4,"Ba, Sb",2,0.0,Orthorhombic,64,Cmce,0.2648999999999999,False,False
mp-1691,La2Ni3,"La, Ni",2,0.009477530333334094,Orthorhombic,64,Cmce,0.0,False,True
mp-1095677,NpSb2,"Np, Sb",2,0.0,Orthorhombic,64,Cmce,0.0,False,True
mp-636525,Zr7Ni10,"Ni, Zr",2,0.008147700147056902,Orthorhombic,64,Cmce,0.0,False,True
mp-2672,K2O2,"K, O",2,0.0,Orthorhombic,64,Cmce,2.3575,False,False
mp-29555,MoBr2,"Br, Mo",2,0.0,Orthorhombic,64,Cmce,2.138,False,False
mp-1095657,TbSb2,"Sb, Tb",2,0.05540707166667147,Orthorhombic,64,Cmce,0.0,False,True
mp-29412,Ta3Br7,"Br, Ta",2,0.007332055750005395,Orthorhombic,64,Cmce,1.2286000000000001,False,False
mp-758214,VF5,"F, V",2,0.014725641250000088,Orthorhombic,64,Cmce,3.1961,True,False
mp-1214676,Cd53Pd16,"Cd, Pd",2,0.0,Orthorhombic,64,Cmce,0.0,True,True
mp-557719,PbS,"Pb, S",2,0.058116138749998214,Orthorhombic,64,Cmce,2.0962,True,False
mp-620029,MoCl2,"Cl, Mo",2,0.0,Orthorhombic,64,Cmce,2.4547999999999996,False,False
mp-1102202,PrSb2,"Pr, Sb",2,0.009909329166667646,Orthorhombic,64,Cmce,0.0,False,True
mp-1755,ZnAu3,"Au, Zn",2,0.00039969000000183996,Orthorhombic,64,Cmce,0.0,False,True
mp-1196555,K6Tl17,"K, Tl",2,0.012277199446168563,Orthorhombic,66,Cccm,0.025799999999999823,False,False
mp-1195257,H3S,"H, S",2,0.09453620593749967,Orthorhombic,66,Cccm,3.8443,True,False
mp-540904,ThI3,"I, Th",2,0.0,Orthorhombic,66,Cccm,0.0,False,True
mp-600068,SiO2,"O, Si",2,0.05040862855555517,Orthorhombic,66,Cccm,5.6335,True,False
mp-1283577,CrO,"Cr, O",2,0.005769471666667414,Orthorhombic,66,Cccm,0.0,True,True
mp-1064456,CuO,"Cu, O",2,0.0010805249999989996,Orthorhombic,66,Cccm,0.0,True,True
mp-499,AgO,"Ag, O",2,0.0026362224999996187,Orthorhombic,66,Cccm,0.0,True,True
mp-570460,LaCo5,"Co, La",2,0.030441443659421807,Orthorhombic,66,Cccm,0.0,True,True
mp-1096936,CsO2,"Cs, O",2,0.05918736000000102,Orthorhombic,65,Cmmm,0.0,True,True
mp-1215400,Zr3Se4,"Se, Zr",2,0.07473294714285217,Orthorhombic,65,Cmmm,0.0,True,True
mp-1206268,ScIn2,"In, Sc",2,0.0,Orthorhombic,65,Cmmm,0.0,True,True
mp-19066,W3O8,"O, W",2,0.024306330681818977,Orthorhombic,65,Cmmm,0.0,True,True
mp-1225131,Fe3Cu,"Cu, Fe",2,0.07040123250000097,Orthorhombic,65,Cmmm,0.0,True,True
mp-1217811,TaW,"Ta, W",2,0.002592650000003971,Orthorhombic,65,Cmmm,0.0,True,True
mp-1105069,La2Sn5,"La, Sn",2,0.025404250714283982,Orthorhombic,65,Cmmm,0.0,False,True
mp-1216229,VRe,"Re, V",2,0.0,Orthorhombic,65,Cmmm,0.0,True,True
mp-1077593,SmSn2,"Sm, Sn",2,0.0,Orthorhombic,65,Cmmm,0.0,False,True
mp-2362485,LiMg,"Li, Mg",2,0.0067947066666667055,Orthorhombic,65,Cmmm,0.0,True,True
mp-571035,OsCl4,"Cl, Os",2,0.0,Orthorhombic,65,Cmmm,0.0,False,True
mp-30767,Li7Sn2,"Li, Sn",2,0.0,Orthorhombic,65,Cmmm,0.0,False,True
mp-28416,Ce3Sn7,"Ce, Sn",2,0.0,Orthorhombic,65,Cmmm,0.0,False,True
mp-1220719,Nb3In,"In, Nb",2,0.03930731250000008,Orthorhombic,65,Cmmm,0.0,True,True
mp-1072,Nb5Ga13,"Ga, Nb",2,0.07046030603174813,Orthorhombic,65,Cmmm,0.0,False,True
mp-1219460,SbPb,"Pb, Sb",2,0.02436757000000256,Orthorhombic,65,Cmmm,0.0,True,True
mp-1216394,VCr,"Cr, V",2,0.09076384000000104,Orthorhombic,65,Cmmm,0.0,True,True
mp-29630,Li7Ge2,"Ge, Li",2,0.01127023574074082,Orthorhombic,65,Cmmm,0.0,False,True
mp-1079582,VIr,"Ir, V",2,0.020002028749999567,Orthorhombic,65,Cmmm,0.0,True,True
mp-1218947,SnBi,"Bi, Sn",2,0.07059951750000026,Orthorhombic,65,Cmmm,0.0,True,True
mp-569250,VIr,"Ir, V",2,0.0,Orthorhombic,65,Cmmm,0.0,False,True
mp-31144,Rb3Au7,"Au, Rb",2,0.0,Orthorhombic,65,Cmmm,0.0,False,True
mp-1217894,TaRe,"Re, Ta",2,0.0,Orthorhombic,65,Cmmm,0.0,True,True
mp-16371,ThGe2,"Ge, Th",2,0.0,Orthorhombic,65,Cmmm,0.0,False,True
mp-656887,Ni3O4,"Ni, O",2,0.0,Orthorhombic,65,Cmmm,0.0,True,True
mp-1220323,NbTc,"Nb, Tc",2,0.0,Orthorhombic,65,Cmmm,0.0,True,True
mp-698,U3O8,"O, U",2,0.0031060777272742257,Orthorhombic,65,Cmmm,0.0,True,True
mp-1237,UGe2,"Ge, U",2,0.0,Orthorhombic,65,Cmmm,0.0,False,True
mp-1225694,CuNi3,"Cu, Ni",2,0.09215838000000076,Orthorhombic,65,Cmmm,0.0,True,True
mp-1220635,Nb3Pd,"Nb, Pd",2,0.01419266249999751,Orthorhombic,65,Cmmm,0.0,True,True
mp-1271166,CoF3,"Co, F",2,0.03668889812499998,Orthorhombic,65,Cmmm,0.0,True,True
mp-28629,Ta5B6,"B, Ta",2,0.0,Orthorhombic,65,Cmmm,0.0,False,True
mp-262,Na3B20,"B, Na",2,0.0,Orthorhombic,65,Cmmm,0.0,False,True
mp-1224780,Fe3Ni,"Fe, Ni",2,0.03959739749999969,Orthorhombic,65,Cmmm,0.0,True,True
mp-1216347,VFe,"Fe, V",2,0.04611653187500231,Orthorhombic,65,Cmmm,0.0,True,True
mp-1206441,V5B6,"B, V",2,0.0,Orthorhombic,65,Cmmm,0.0,True,True
mp-1079131,VIr,"Ir, V",2,0.02547384249999851,Orthorhombic,65,Cmmm,0.0,True,True
mp-1205645,U3Sn7,"Sn, U",2,0.0,Orthorhombic,65,Cmmm,0.0,True,True
mp-1227549,BeFe3,"Be, Fe",2,0.046459954374999946,Orthorhombic,65,Cmmm,0.0,True,True
mp-1215437,ZnAg,"Ag, Zn",2,0.03694817999999955,Orthorhombic,65,Cmmm,0.0,True,True
mp-1217892,TaNb,"Nb, Ta",2,0.01121043633333585,Orthorhombic,65,Cmmm,0.0,True,True
mp-1225656,CuPd,"Cu, Pd",2,0.08776173000000043,Orthorhombic,65,Cmmm,0.0,True,True
mp-28511,Zr2P,"P, Zr",2,0.00711985642592694,Orthorhombic,65,Cmmm,0.0,False,True
mp-971751,VRh,"Rh, V",2,0.0,Orthorhombic,65,Cmmm,0.0,False,True
mp-12701,NdSn2,"Nd, Sn",2,0.0,Orthorhombic,65,Cmmm,0.0,False,True
mp-1179352,SnSb,"Sb, Sn",2,0.08533005374999902,Orthorhombic,65,Cmmm,0.0,True,True
mp-1025069,PrSn2,"Pr, Sn",2,0.0,Orthorhombic,65,Cmmm,0.0,False,True
mp-1216480,V3Ga,"Ga, V",2,0.09315450874999875,Orthorhombic,65,Cmmm,0.0,True,True
mp-1225698,Cu3Ni,"Cu, Ni",2,0.05918841500000127,Orthorhombic,65,Cmmm,0.0,True,True
mp-1078895,Mn3Pd5,"Mn, Pd",2,0.0,Orthorhombic,65,Cmmm,0.0,False,True
mp-560998,SiO2,"O, Si",2,0.01830412037037199,Orthorhombic,65,Cmmm,5.5774,False,False
mp-1077735,LaSn2,"La, Sn",2,0.013674336499998496,Orthorhombic,65,Cmmm,0.0,False,True
mp-1216634,TiNb,"Nb, Ti",2,0.05417519666666948,Orthorhombic,65,Cmmm,0.0,True,True
mp-1079090,Er3Sn7,"Er, Sn",2,0.0,Orthorhombic,65,Cmmm,0.0,False,True
mp-16514,Al3Ni5,"Al, Ni",2,0.0,Orthorhombic,65,Cmmm,0.0,False,True
mp-1228813,AlV3,"Al, V",2,0.042511872500000436,Orthorhombic,65,Cmmm,0.0,True,True
mp-1217887,TaTi,"Ta, Ti",2,0.08432236299999829,Orthorhombic,65,Cmmm,0.0,True,True
mp-1215462,ZnCu,"Cu, Zn",2,0.0383077949999997,Orthorhombic,65,Cmmm,0.0,True,True
mp-1225059,FeCl4,"Cl, Fe",2,0.0,Orthorhombic,65,Cmmm,0.2505,True,False
mp-1224965,FeNi,"Fe, Ni",2,0.08323196499999952,Orthorhombic,65,Cmmm,0.0,True,True
mp-1228001,AlV,"Al, V",2,0.0,Orthorhombic,65,Cmmm,0.0,True,True
mp-1226716,CdAg,"Ag, Cd",2,0.0298495100000018,Orthorhombic,65,Cmmm,0.0,True,True
mp-1207038,USn2,"Sn, U",2,0.01968060047619069,Orthorhombic,65,Cmmm,0.0,True,True
mp-865166,HfPd5,"Hf, Pd",2,0.0,Orthorhombic,65,Cmmm,0.0,True,True
mp-1067236,CdPt3,"Cd, Pt",2,0.0,Orthorhombic,65,Cmmm,0.0,False,True
mp-1216231,VW,"V, W",2,0.0,Orthorhombic,65,Cmmm,0.0,True,True
mp-1216621,TiW,"Ti, W",2,0.022547341666665943,Orthorhombic,65,Cmmm,0.0,True,True
mp-1220322,NbRe,"Nb, Re",2,0.0,Orthorhombic,65,Cmmm,0.0,True,True
mp-1208843,Sm2Sn5,"Sm, Sn",2,0.010008301428569233,Orthorhombic,65,Cmmm,0.0,True,True
mp-11809,TiAl2,"Al, Ti",2,0.0030881258333330663,Orthorhombic,65,Cmmm,0.0,False,True
mp-1225895,CsRb,"Cs, Rb",2,0.029856246422412247,Orthorhombic,65,Cmmm,0.0,True,True
mp-1219491,ReW3,"Re, W",2,0.07033611624999736,Orthorhombic,65,Cmmm,0.0,True,True
mp-1252764,AlF3,"Al, F",2,0.05417488999999964,Orthorhombic,65,Cmmm,7.4477,True,False
mp-1066522,HgPt3,"Hg, Pt",2,0.08055728125000172,Orthorhombic,65,Cmmm,0.0,False,True
mp-1216558,Tl3In,"In, Tl",2,0.006199410000000682,Orthorhombic,65,Cmmm,0.0,True,True
mp-1227725,BaSr,"Ba, Sr",2,0.0063887549999988025,Orthorhombic,65,Cmmm,0.0,True,True
mp-1216352,VFe3,"Fe, V",2,0.07277287500000007,Orthorhombic,65,Cmmm,0.0,True,True
mp-1209313,Pr2Sn5,"Pr, Sn",2,0.021208527857142556,Orthorhombic,65,Cmmm,0.0,True,True
mp-1079273,La3Sn7,"La, Sn",2,0.0,Orthorhombic,65,Cmmm,0.0,False,True
mp-1213141,CuCl3,"Cl, Cu",2,0.06752626437500098,Orthorhombic,65,Cmmm,0.0,True,True
mp-1220316,NbW,"Nb, W",2,0.0,Orthorhombic,65,Cmmm,0.0,True,True
mp-1220645,Nb3Au,"Au, Nb",2,0.013784691250002368,Orthorhombic,65,Cmmm,0.0,True,True
mp-1228927,AlAg3,"Ag, Al",2,0.09079373450000006,Orthorhombic,65,Cmmm,0.0,True,True
mp-9858,Ba3Ge4,"Ba, Ge",2,0.0,Orthorhombic,65,Cmmm,0.0,False,True
mp-1102394,Nb5B6,"B, Nb",2,0.0,Orthorhombic,65,Cmmm,0.0,False,True
mp-1216323,VMo,"Mo, V",2,0.0,Orthorhombic,65,Cmmm,0.0,True,True
mp-1224185,In3Co,"Co, In",2,0.0792974837499969,Orthorhombic,65,Cmmm,0.0,True,True
mp-1206287,LuIn2,"In, Lu",2,0.0,Orthorhombic,65,Cmmm,0.0,True,True
mp-753759,VF4,"F, V",2,0.04036671199999908,Orthorhombic,65,Cmmm,2.7695,True,False
mp-541131,Ce2Sn5,"Ce, Sn",2,0.016432730714284638,Orthorhombic,65,Cmmm,0.0,False,True
mp-1079218,Ho3Sn7,"Ho, Sn",2,0.0,Orthorhombic,65,Cmmm,0.0,False,True
mp-1220334,NbV,"Nb, V",2,0.09080609499999781,Orthorhombic,65,Cmmm,0.0,True,True
mp-1215543,Zr3S4,"S, Zr",2,0.009770879107141361,Orthorhombic,65,Cmmm,0.0,True,True
mp-755875,Ti3O4,"O, Ti",2,0.08327434571428505,Orthorhombic,65,Cmmm,0.0,True,True
mp-1079241,Ce2Si7,"Ce, Si",2,0.09605580555555626,Orthorhombic,65,Cmmm,0.0,False,True
mp-11413,ScGa2,"Ga, Sc",2,0.03969511500000067,Orthorhombic,65,Cmmm,0.0,False,True
mp-1220327,NbMo,"Mo, Nb",2,0.0,Orthorhombic,65,Cmmm,0.0,True,True
mp-1079704,Tb3Sn7,"Sn, Tb",2,0.0,Orthorhombic,65,Cmmm,0.0,False,True
mp-1215483,Zn3Cu,"Cu, Zn",2,0.0819308999999997,Orthorhombic,65,Cmmm,0.0,True,True
mp-639558,SiO2,"O, Si",2,0.02228758257936647,Orthorhombic,65,Cmmm,5.645099999999999,True,False
mp-30663,Ga3Pt5,"Ga, Pt",2,0.0024904434375025986,Orthorhombic,65,Cmmm,0.0,False,True
mp-11398,Ga3Ni5,"Ga, Ni",2,0.0,Orthorhombic,65,Cmmm,0.0,False,True
mp-1181502,CsO2,"Cs, O",2,0.0,Orthorhombic,65,Cmmm,0.0,True,True
mp-1206318,Nd3Sn7,"Nd, Sn",2,0.0,Orthorhombic,65,Cmmm,0.0,True,True
mp-1224754,Fe3Pd,"Fe, Pd",2,0.08678453083333348,Orthorhombic,65,Cmmm,0.0,True,True
mp-1217895,TaMo,"Mo, Ta",2,0.0,Orthorhombic,65,Cmmm,0.0,True,True
mp-1215526,ZnFe3,"Fe, Zn",2,0.03558562791666642,Orthorhombic,65,Cmmm,0.0,True,True
mp-1216655,TiMo,"Mo, Ti",2,0.012053762222222986,Orthorhombic,65,Cmmm,0.0,True,True
mp-1221387,MoW,"Mo, W",2,0.0,Orthorhombic,65,Cmmm,0.0,True,True
mp-1206509,U2Tc,"Tc, U",2,0.039488591666660966,Orthorhombic,65,Cmmm,0.0,True,True
mp-1209854,Nd2Sn5,"Nd, Sn",2,0.03072479857142607,Orthorhombic,65,Cmmm,0.0,True,True
mp-1219493,ReMo3,"Mo, Re",2,0.06510598062499895,Orthorhombic,65,Cmmm,0.0,True,True
mp-1225695,CuNi,"Cu, Ni",2,0.09309727499999987,Orthorhombic,65,Cmmm,0.0,True,True
mp-1222270,LiMg,"Li, Mg",2,0.019147592499999977,Orthorhombic,65,Cmmm,0.0,True,True
mp-30683,ZrGa2,"Ga, Zr",2,0.008013790416667277,Orthorhombic,65,Cmmm,0.0,False,True
mp-1226211,CrFe,"Cr, Fe",2,0.09283367000000098,Orthorhombic,65,Cmmm,0.0,True,True
mp-600018,SiO2,"O, Si",2,0.018989678055557846,Orthorhombic,67,Cmme,5.4453,True,False
mp-653763,SiO2,"O, Si",2,0.017316767976190306,Orthorhombic,67,Cmme,5.3421,False,False
mp-1206371,NbH,"H, Nb",2,0.0,Orthorhombic,67,Cmme,0.0,True,True
mp-1080586,Sn4Ir,"Ir, Sn",2,0.025408844000001096,Orthorhombic,68,Ccce,0.0,False,True
mp-1393,Sn4Au,"Au, Sn",2,0.07716986600000197,Orthorhombic,68,Ccce,0.0,False,True
mp-2128,Sn4Pd,"Pd, Sn",2,0.05176513800000038,Orthorhombic,68,Ccce,0.0,False,True
mp-20662,Sn4Pt,"Pt, Sn",2,0.04449678800000356,Orthorhombic,68,Ccce,0.0,False,True
mp-1200062,Ga16Rh3,"Ga, Rh",2,0.007414168881578753,Orthorhombic,68,Ccce,0.0,False,True
mp-1221484,Mo2Rh,"Mo, Rh",2,0.0699764716666671,Orthorhombic,69,Fmmm,0.0,True,True
mp-1226230,CrFe4,"Cr, Fe",2,0.027971407999999087,Orthorhombic,69,Fmmm,0.0,True,True
mp-1216675,TiMo2,"Mo, Ti",2,0.061337100370366215,Orthorhombic,69,Fmmm,0.0,True,True
mp-1220634,Nb2Tc,"Nb, Tc",2,0.0,Orthorhombic,69,Fmmm,0.0,True,True
mp-2079,Rb2P3,"P, Rb",2,0.0,Orthorhombic,69,Fmmm,0.7643999999999997,False,False
mp-1225520,Er2Mg,"Er, Mg",2,0.09437721666666699,Orthorhombic,69,Fmmm,0.0,True,True
mp-15557,Cs2As3,"As, Cs",2,0.0,Orthorhombic,69,Fmmm,0.4474999999999998,False,False
mp-554064,V6O13,"O, V",2,0.07047400684210636,Orthorhombic,69,Fmmm,0.0,False,True
mp-1220401,Nb4Pd,"Nb, Pd",2,0.021967692000000483,Orthorhombic,69,Fmmm,0.0,True,True
mp-1223979,In2Bi,"Bi, In",2,0.07925593611111026,Orthorhombic,69,Fmmm,0.0,True,True
mp-14652,Cs2P3,"Cs, P",2,0.0,Orthorhombic,69,Fmmm,0.8470999999999997,False,False
mp-569678,Rh4Pb5,"Pb, Rh",2,0.002735981111115393,Orthorhombic,69,Fmmm,0.0,False,True
mp-1221635,MnFe4,"Fe, Mn",2,0.035551132413793596,Orthorhombic,69,Fmmm,0.0,True,True
mp-1219490,ReW2,"Re, W",2,0.06467894833333787,Orthorhombic,69,Fmmm,0.0,True,True
mp-1224941,FeMo2,"Fe, Mo",2,0.06617449256410346,Orthorhombic,69,Fmmm,0.0,True,True