material_id,formula,elements,num_elements,energy_above_hull,crystal_system,spacegroup_number,spacegroup_symbol,band_gap,theoretical,is_metal
mp-568360,Ce13Zn58,"Ce, Zn",2,0.00166033773580887,Hexagonal,194,P6_3/mmc,0.0,False,True
mp-1186291,Nd3Y,"Nd, Y",2,0.028703814375003134,Hexagonal,194,P6_3/mmc,0.0,True,True
mp-1184466,EuIn3,"Eu, In",2,0.0009296287500006883,Hexagonal,194,P6_3/mmc,0.0,True,True
mp-1102333,ErOs2,"Er, Os",2,0.0,Hexagonal,194,P6_3/mmc,0.0,False,True
mp-1039119,MgAl3,"Al, Mg",2,0.03433043999999974,Hexagonal,194,P6_3/mmc,0.0,True,True
mp-1198957,Sm2Zn17,"Sm, Zn",2,0.004336289210524535,Hexagonal,194,P6_3/mmc,0.0,False,True
mp-1187531,TiZn3,"Ti, Zn",2,0.0,Hexagonal,194,P6_3/mmc,0.0,True,True
mp-1102439,UOs2,"Os, U",2,0.0,Hexagonal,194,P6_3/mmc,0.0,False,True
mp-1094582,LiMg2,"Li, Mg",2,0.03827870666666744,Hexagonal,194,P6_3/mmc,0.0,True,True
mp-30724,ThHg3,"Hg, Th",2,0.0,Hexagonal,194,P6_3/mmc,0.0,False,True
mp-1103264,ZrV2,"V, Zr",2,0.03256666083333215,Hexagonal,194,P6_3/mmc,0.0,False,True
mp-864935,MgAu3,"Au, Mg",2,0.007863546999996807,Hexagonal,194,P6_3/mmc,0.0,True,True
mp-1186152,NaHg3,"Hg, Na",2,0.0,Hexagonal,194,P6_3/mmc,0.0,True,True
mp-1186721,Pr3Lu,"Lu, Pr",2,0.03337286083333524,Hexagonal,194,P6_3/mmc,0.0,True,True
mp-864938,Mg3Tl,"Mg, Tl",2,0.0,Hexagonal,194,P6_3/mmc,0.0,True,True
mp-877,Er2In,"Er, In",2,0.0,Hexagonal,194,P6_3/mmc,0.0,False,True
mp-867318,Eu3Tl,"Eu, Tl",2,0.0,Hexagonal,194,P6_3/mmc,0.0,True,True
mp-1184036,GaAg3,"Ag, Ga",2,0.03324447833333366,Hexagonal,194,P6_3/mmc,0.0,True,True
mp-1079072,Mg3In,"In, Mg",2,0.001179484999999758,Hexagonal,194,P6_3/mmc,0.0,False,True
mp-979465,SmCd3,"Cd, Sm",2,0.0,Hexagonal,194,P6_3/mmc,0.0,True,True
mp-1185127,La3Hg,"Hg, La",2,0.03549070374999985,Hexagonal,194,P6_3/mmc,0.0,True,True
mp-1201276,Y2Ni7,"Ni, Y",2,0.00852187916666658,Hexagonal,194,P6_3/mmc,0.0,False,True
mp-383,Rb2Te,"Rb, Te",2,0.03152675249999959,Hexagonal,194,P6_3/mmc,1.3724999999999998,False,False
mp-1019322,Te2W,"Te, W",2,0.033608181666664905,Hexagonal,194,P6_3/mmc,0.9389000000000003,False,False
mp-13499,HoMg2,"Ho, Mg",2,0.010252738333335287,Hexagonal,194,P6_3/mmc,0.0,False,True
mp-1186332,NdTm3,"Nd, Tm",2,0.001188061874998425,Hexagonal,194,P6_3/mmc,0.0,True,True
mp-1186541,Pm3Sm,"Pm, Sm",2,0.02346979187499798,Hexagonal,194,P6_3/mmc,0.0,True,True
mp-1183100,Ac3Cd,"Ac, Cd",2,0.06525526666666792,Hexagonal,194,P6_3/mmc,0.0,True,True
mp-1095545,ZrTc2,"Tc, Zr",2,0.0,Hexagonal,194,P6_3/mmc,0.0,False,True
mp-1039075,Mg3Bi,"Bi, Mg",2,0.061159468124998284,Hexagonal,194,P6_3/mmc,0.0,True,True
mp-570596,Nd2Ni17,"Nd, Ni",2,0.011812816842105889,Hexagonal,194,P6_3/mmc,0.0,False,True
mp-610,MnAs,"As, Mn",2,0.033628015000000566,Hexagonal,194,P6_3/mmc,0.0,False,True
mp-30855,UPt3,"Pt, U",2,0.0,Hexagonal,194,P6_3/mmc,0.0,False,True
mp-1183103,Ac3Dy,"Ac, Dy",2,0.06845749937499335,Hexagonal,194,P6_3/mmc,0.0,True,True
mp-1184888,HoMg3,"Ho, Mg",2,0.011063128749999152,Hexagonal,194,P6_3/mmc,0.0,True,True
mp-1186542,Pm3Tm,"Pm, Tm",2,0.02202855583333374,Hexagonal,194,P6_3/mmc,0.0,True,True
mp-30842,ZrPd3,"Pd, Zr",2,0.0,Hexagonal,194,P6_3/mmc,0.0,False,True
mp-1202187,Ho2Ni17,"Ho, Ni",2,0.00516136736842121,Hexagonal,194,P6_3/mmc,0.0,False,True
mp-1186318,NdLu3,"Lu, Nd",2,0.0,Hexagonal,194,P6_3/mmc,0.0,True,True
mp-973199,Sb3Pb,"Pb, Sb",2,0.06769441125000242,Hexagonal,194,P6_3/mmc,0.0,True,True
mp-1186408,PaSi3,"Pa, Si",2,0.0072849575000013544,Hexagonal,194,P6_3/mmc,0.0,True,True
mp-999318,NiBi,"Bi, Ni",2,0.0,Hexagonal,194,P6_3/mmc,0.0,False,True
mp-867838,AcAu3,"Ac, Au",2,0.0,Hexagonal,194,P6_3/mmc,0.0,True,True
mp-1101878,DyRu2,"Dy, Ru",2,0.0,Hexagonal,194,P6_3/mmc,0.0,False,True
mp-501,TaSe2,"Se, Ta",2,0.012397449166666519,Hexagonal,194,P6_3/mmc,0.0,False,True
mp-978963,Ti3Be,"Be, Ti",2,0.07425860729166711,Hexagonal,194,P6_3/mmc,0.0,True,True
mp-1184324,Fe3Sb,"Fe, Sb",2,0.08533547624999915,Hexagonal,194,P6_3/mmc,0.0,True,True
mp-1183749,CrIr3,"Cr, Ir",2,0.041197177500002624,Hexagonal,194,P6_3/mmc,0.0,True,True
mp-1185475,Lu3Mg,"Lu, Mg",2,0.033458699166665884,Hexagonal,194,P6_3/mmc,0.0,True,True
mp-1102182,LuMn2,"Lu, Mn",2,0.04030997770531375,Hexagonal,194,P6_3/mmc,0.0,False,True
mp-1187241,TaIr3,"Ir, Ta",2,0.01625488250000018,Hexagonal,194,P6_3/mmc,0.0,True,True
mp-19854,Pr2In,"In, Pr",2,0.0,Hexagonal,194,P6_3/mmc,0.0,False,True
mp-976812,Pr2Zn17,"Pr, Zn",2,0.002671304210540182,Hexagonal,194,P6_3/mmc,0.0,False,True
mp-985506,Ac3Tl,"Ac, Tl",2,0.0,Hexagonal,194,P6_3/mmc,0.0,True,True
mp-1094760,CeMg3,"Ce, Mg",2,0.054633274999998704,Hexagonal,194,P6_3/mmc,0.0,True,True
mp-1185121,LaZn3,"La, Zn",2,0.07232038375000016,Hexagonal,194,P6_3/mmc,0.0,True,True
mp-810,NiSb,"Ni, Sb",2,0.0,Hexagonal,194,P6_3/mmc,0.0,False,True
mp-581920,La13Cd58,"Cd, La",2,0.0,Hexagonal,194,P6_3/mmc,0.0,False,True
mp-972416,Tm3Lu,"Lu, Tm",2,0.000981150833325728,Hexagonal,194,P6_3/mmc,0.0,True,True
mp-1095124,TaCo3,"Co, Ta",2,0.027305144999999698,Hexagonal,194,P6_3/mmc,0.0,True,True
mp-976893,Ni3Sb,"Ni, Sb",2,0.047439457500001225,Hexagonal,194,P6_3/mmc,0.0,True,True
mp-1185113,La3Cd,"Cd, La",2,0.045807601249997276,Hexagonal,194,P6_3/mmc,0.0,True,True
mp-1187948,Zn3Ni,"Ni, Zn",2,0.03329481631756792,Hexagonal,194,P6_3/mmc,0.0,True,True
mp-867368,Eu3Sn,"Eu, Sn",2,0.013486098750007613,Hexagonal,194,P6_3/mmc,0.0,True,True
mp-975658,PrHo3,"Ho, Pr",2,0.013162164583331304,Hexagonal,194,P6_3/mmc,0.0,True,True
mp-1185333,LiAu3,"Au, Li",2,0.005273406249997947,Hexagonal,194,P6_3/mmc,0.0,True,True
mp-602,Te2Mo,"Mo, Te",2,0.0,Hexagonal,194,P6_3/mmc,0.8632999999999997,False,False
mp-978744,SmBi3,"Bi, Sm",2,0.033903760000003835,Hexagonal,194,P6_3/mmc,0.0,True,True
mp-1008500,BaO,"Ba, O",2,0.01888829749999843,Hexagonal,194,P6_3/mmc,2.3602000000000003,False,False
mp-1039269,Ce2Mg,"Ce, Mg",2,0.08304913444444395,Hexagonal,194,P6_3/mmc,0.0,True,True
mp-1183652,CdHg3,"Cd, Hg",2,0.03991048562500055,Hexagonal,194,P6_3/mmc,0.0,True,True
mp-1187685,TmBi3,"Bi, Tm",2,0.09364435250000103,Hexagonal,194,P6_3/mmc,0.0,True,True
mp-862847,PaB3,"B, Pa",2,0.0,Hexagonal,194,P6_3/mmc,0.0,True,True
mp-1187319,Tb3Sm,"Sm, Tb",2,0.0,Hexagonal,194,P6_3/mmc,0.0,True,True
mp-972557,SmAg3,"Ag, Sm",2,0.05697191013513603,Hexagonal,194,P6_3/mmc,0.0,True,True
mp-1102099,HoFe2,"Fe, Ho",2,0.0219794025000013,Hexagonal,194,P6_3/mmc,0.0,False,True
mp-1188129,ZrPt3,"Pt, Zr",2,0.0,Hexagonal,194,P6_3/mmc,0.0,False,True
mp-1184811,InGa3,"Ga, In",2,0.06566275562500046,Hexagonal,194,P6_3/mmc,0.0,True,True
mp-1188051,Zr3Bi,"Bi, Zr",2,0.09427822562500054,Hexagonal,194,P6_3/mmc,0.0,True,True
mp-1006059,Tl3Bi,"Bi, Tl",2,0.0,Hexagonal,194,P6_3/mmc,0.0,True,True
mp-30726,YHg3,"Hg, Y",2,0.0,Hexagonal,194,P6_3/mmc,0.0,False,True
mp-1186776,SrTl3,"Sr, Tl",2,0.021081438750002235,Hexagonal,194,P6_3/mmc,0.0,True,True
mp-1191559,NbRh3,"Nb, Rh",2,0.0,Hexagonal,194,P6_3/mmc,0.0,False,True
mp-1101860,ScTc2,"Sc, Tc",2,0.0,Hexagonal,194,P6_3/mmc,0.0,False,True
mp-1185479,Lu3Sc,"Lu, Sc",2,0.019004692500004694,Hexagonal,194,P6_3/mmc,0.0,True,True
mp-1187308,Tb3Pm,"Pm, Tb",2,0.0,Hexagonal,194,P6_3/mmc,0.0,True,True
mp-861910,Sc3Hg,"Hg, Sc",2,0.0,Hexagonal,194,P6_3/mmc,0.0,True,True
mp-1197433,Sm5Co19,"Co, Sm",2,0.0337875880781251,Hexagonal,194,P6_3/mmc,0.0,False,True
mp-1203997,Er13Zn58,"Er, Zn",2,0.0,Hexagonal,194,P6_3/mmc,0.02619999999999978,False,False
mp-977426,NbCo3,"Co, Nb",2,0.0,Hexagonal,194,P6_3/mmc,0.0,True,True
mp-985302,Ac3Pr,"Ac, Pr",2,0.01780028020833413,Hexagonal,194,P6_3/mmc,0.0,True,True
mp-978927,SmEr3,"Er, Sm",2,0.019492903749998902,Hexagonal,194,P6_3/mmc,0.0,True,True
mp-1409,TiNi3,"Ni, Ti",2,0.0,Hexagonal,194,P6_3/mmc,0.0,False,True
mp-1184171,ErAl3,"Al, Er",2,0.0,Hexagonal,194,P6_3/mmc,0.0,True,True
mp-975651,PrTm3,"Pr, Tm",2,0.011011798333328215,Hexagonal,194,P6_3/mmc,0.0,True,True
mp-1077814,Cs2S,"Cs, S",2,0.06672482000000102,Hexagonal,194,P6_3/mmc,2.0948,False,False
mp-1209010,Sc2Be17,"Be, Sc",2,0.0028363492105265564,Hexagonal,194,P6_3/mmc,0.0,True,True
mp-19890,URe2,"Re, U",2,0.016301099999999735,Hexagonal,194,P6_3/mmc,0.0,False,True
mp-2039,ScMn2,"Mn, Sc",2,0.0,Hexagonal,194,P6_3/mmc,0.0,False,True
mp-985547,Ac3Sm,"Ac, Sm",2,0.03917299812499664,Hexagonal,194,P6_3/mmc,0.0,True,True
mp-979292,SmY3,"Sm, Y",2,0.008375928749995154,Hexagonal,194,P6_3/mmc,0.0,True,True
mp-1183675,CdPd3,"Cd, Pd",2,0.02434241125000014,Hexagonal,194,P6_3/mmc,0.0,True,True
mp-10000,Hf2S,"Hf, S",2,0.0,Hexagonal,194,P6_3/mmc,0.0,False,True
mp-1183250,Ag3Hg,"Ag, Hg",2,0.02121226312500113,Hexagonal,194,P6_3/mmc,0.0,True,True
mp-1096994,HfN,"Hf, N",2,0.020751347500002737,Hexagonal,194,P6_3/mmc,0.0,True,True
mp-973685,NdHo3,"Ho, Nd",2,0.003934851875001755,Hexagonal,194,P6_3/mmc,0.0,True,True
mp-570571,ThMg2,"Mg, Th",2,0.040943546250001184,Hexagonal,194,P6_3/mmc,0.0,False,True
mp-1641,CrSb,"Cr, Sb",2,0.027645343750002382,Hexagonal,194,P6_3/mmc,0.0,False,True
mp-1184730,HfNi3,"Hf, Ni",2,0.011648468000000634,Hexagonal,194,P6_3/mmc,0.0,True,True
mp-20868,Fe2W,"Fe, W",2,0.0,Hexagonal,194,P6_3/mmc,0.0,False,True
mp-30651,MgGa2,"Ga, Mg",2,0.004995789999999722,Hexagonal,194,P6_3/mmc,0.0,False,True
mp-1192189,MgO,"Mg, O",2,0.04323758541666578,Hexagonal,194,P6_3/mmc,4.0527,True,False
mp-570923,YRe2,"Re, Y",2,0.0,Hexagonal,194,P6_3/mmc,0.0,False,True
mp-867281,Tc3Pt,"Pt, Tc",2,0.0,Hexagonal,194,P6_3/mmc,0.0,True,True
mp-1187553,Tl3Sn,"Sn, Tl",2,0.06849414749999738,Hexagonal,194,P6_3/mmc,0.0,True,True
mp-2146,KGe,"Ge, K",2,0.0,Cubic,218,P-43n,0.9106,False,False
mp-1370,CsSi,"Cs, Si",2,0.0,Cubic,218,P-43n,1.5634000000000001,False,False
mp-1273,CsGe,"Cs, Ge",2,0.0,Cubic,218,P-43n,1.3329,False,False
mp-554791,RuO4,"O, Ru",2,0.04009481574999718,Cubic,218,P-43n,2.2052,False,False
mp-1217,KSi,"K, Si",2,0.0,Cubic,218,P-43n,1.2619000000000002,False,False
mp-1888,RbGe,"Ge, Rb",2,0.0,Cubic,218,P-43n,1.0150000000000001,False,False
mp-667320,SeCl4,"Cl, Se",2,0.013799672124999773,Cubic,218,P-43n,2.855,False,False
mp-1210452,SCl4,"Cl, S",2,0.0,Cubic,218,P-43n,2.646,True,False
mp-571056,CsSn,"Cs, Sn",2,0.0,Cubic,218,P-43n,1.1371000000000002,False,False
mp-1074,RbSi,"Rb, Si",2,0.0,Cubic,218,P-43n,1.3487999999999998,False,False
mp-29688,Ge3Cl8,"Cl, Ge",2,0.0012684965909084411,Cubic,219,F-43c,3.2077999999999998,False,False
mp-27189,Si3Cl8,"Cl, Si",2,0.01629378454545538,Cubic,219,F-43c,4.7516,False,False
mp-567857,Cd8Ag5,"Ag, Cd",2,0.0,Cubic,217,I-43m,0.0,False,True
mp-1190080,BeCl2,"Be, Cl",2,0.01870443305555547,Cubic,217,I-43m,6.5805,True,False
mp-1993,Tm5Mg24,"Mg, Tm",2,0.0,Cubic,217,I-43m,0.0,False,True
mp-1193259,Al8Fe5,"Al, Fe",2,0.046395610769231155,Cubic,217,I-43m,0.0,False,True
mp-1219349,Si3Au10,"Au, Si",2,0.0481247476923059,Cubic,217,I-43m,0.0,True,True
mp-1021328,H4C,"C, H",2,0.0,Cubic,217,I-43m,7.6375,True,False
mp-1207450,Zn9Fe4,"Fe, Zn",2,0.0,Cubic,217,I-43m,0.0,True,True
mp-30361,Zn8Ag5,"Ag, Zn",2,0.0025969757692312356,Cubic,217,I-43m,0.0,False,True
mp-1818,SiF4,"F, Si",2,0.0,Cubic,217,I-43m,7.7173,False,False
mp-1193415,Cd8Au5,"Au, Cd",2,0.04904542677350321,Cubic,217,I-43m,0.0,False,True
mp-1192487,Ho5Mg24,"Ho, Mg",2,0.01848900568965517,Cubic,217,I-43m,0.0,False,True
mp-393,Pd16S7,"Pd, S",2,0.0,Cubic,217,I-43m,0.0,False,True
mp-30747,Zn11Ir2,"Ir, Zn",2,0.0,Cubic,217,I-43m,0.0,False,True
mp-1192984,Al5Re24,"Al, Re",2,0.06102760517241279,Cubic,217,I-43m,0.0,False,True
mp-570227,BeCl2,"Be, Cl",2,0.014751424305555538,Cubic,217,I-43m,6.636,True,False
mp-1988,Y5Mg24,"Mg, Y",2,0.017897527068963637,Cubic,217,I-43m,0.0,False,True
mp-1368,Zn8Cu5,"Cu, Zn",2,0.0,Cubic,217,I-43m,0.0,False,True
mp-1094683,Mg16Al13,"Al, Mg",2,0.010447255086207363,Cubic,217,I-43m,0.0,True,True
mp-12662,Re24Mo5,"Mo, Re",2,0.0,Cubic,217,I-43m,0.0,False,True
mp-1192361,Zn11Co2,"Co, Zn",2,0.0,Cubic,217,I-43m,0.0,False,True
mp-11532,Zn11Ni2,"Ni, Zn",2,0.0,Cubic,217,I-43m,0.0,False,True
mp-1192763,Tb5Mg24,"Mg, Tb",2,0.02202631431034341,Cubic,217,I-43m,0.0,False,True
mp-11558,Sc5Re24,"Re, Sc",2,0.0,Cubic,217,I-43m,0.0,False,True
mp-13448,Zn11Rh2,"Rh, Zn",2,0.0,Cubic,217,I-43m,0.0,False,True
mp-21613,K5Pb24,"K, Pb",2,0.0,Cubic,217,I-43m,0.0,False,True
mp-567490,Hf5Re24,"Hf, Re",2,0.0,Cubic,217,I-43m,0.0,False,True
mp-20276,U2F9,"F, U",2,0.0,Cubic,217,I-43m,0.0,False,True
mp-1193426,Fe25Mo4,"Fe, Mo",2,0.09549232379310268,Cubic,217,I-43m,0.0,False,True
mp-9816,GeF4,"F, Ge",2,0.0,Cubic,217,I-43m,5.500500000000001,False,False
mp-1194114,Mg13Al16,"Al, Mg",2,0.044191618620689876,Cubic,217,I-43m,0.0,False,True
mp-1211140,Li8Ag5,"Ag, Li",2,0.0,Cubic,217,I-43m,0.0,True,True
mp-1214872,Al8V5,"Al, V",2,0.052408436538462055,Cubic,217,I-43m,0.0,True,True
mp-672670,Dy5Mg24,"Dy, Mg",2,0.021821642586207446,Cubic,217,I-43m,0.0,False,True
mp-2151,Mg17Al12,"Al, Mg",2,0.0,Cubic,217,I-43m,0.0,False,True
mp-1192842,Lu5Mg24,"Lu, Mg",2,0.014867587758621958,Cubic,217,I-43m,0.0,False,True
mp-2218,Er5Mg24,"Er, Mg",2,0.013092441206897565,Cubic,217,I-43m,0.0,False,True
mp-1178900,YFe2,"Fe, Y",2,0.0014878952083323682,Cubic,217,I-43m,0.0,True,True
mp-1374,Zr5Re24,"Re, Zr",2,0.0,Cubic,217,I-43m,0.0,False,True
mp-1188220,SiO2,"O, Si",2,0.016530015555556332,Cubic,217,I-43m,5.4517999999999995,False,False
mp-1194089,CaMn28,"Ca, Mn",2,0.07027932406658621,Cubic,217,I-43m,0.0,False,True
mp-561543,BeF2,"Be, F",2,0.0,Cubic,217,I-43m,8.0368,True,False
mp-518,Ti5Re24,"Re, Ti",2,0.0,Cubic,217,I-43m,0.0,False,True
mp-1220248,Rb16O3,"O, Rb",2,0.07284544032894624,Orthorhombic,22,F222,0.0,True,True
mp-1202074,Tm11Cd45,"Cd, Tm",2,0.004116547678573168,Cubic,216,F-43m,0.0,False,True
mp-1198729,Li22Sn5,"Li, Sn",2,0.010069883333333252,Cubic,216,F-43m,0.0,False,True
mp-13033,MgTe,"Mg, Te",2,0.0,Cubic,216,F-43m,2.3186,True,False
mp-1190,ZnSe,"Se, Zn",2,0.0,Cubic,216,F-43m,1.1663,False,False
mp-20305,InAs,"As, In",2,0.0,Cubic,216,F-43m,0.0,False,True
mp-1199571,Lu11Cd45,"Cd, Lu",2,0.0021787010714291455,Cubic,216,F-43m,0.0,False,True
mp-568623,Sc44Os7,"Os, Sc",2,0.0,Cubic,216,F-43m,0.0,False,True
mp-1197394,Tb11Cd45,"Cd, Tb",2,0.0,Cubic,216,F-43m,0.0,False,True
mp-650,Be5Pd,"Be, Pd",2,0.0,Cubic,216,F-43m,0.0,False,True
mp-1200338,Y15Ni32,"Ni, Y",2,0.0,Cubic,216,F-43m,0.0,False,True
mp-30600,TmCu5,"Cu, Tm",2,0.0,Cubic,216,F-43m,0.0,False,True
mp-866291,AgBr,"Ag, Br",2,0.030505370000000198,Cubic,216,F-43m,1.1708,True,False
mp-1071690,Be5Co,"Be, Co",2,0.002452683333333816,Cubic,216,F-43m,0.0,False,True
mp-1018132,AlBi,"Al, Bi",2,0.06617068999999987,Cubic,216,F-43m,0.0,True,True
mp-1407787,CrSe2,"Cr, Se",2,0.024610624166666817,Cubic,216,F-43m,0.0,True,True
mp-10695,ZnS,"S, Zn",2,0.0001462457142853424,Cubic,216,F-43m,2.0192,False,False
mp-1228165,Al5Se8,"Al, Se",2,0.043122360102163526,Cubic,216,F-43m,0.0,True,True
mp-1639,BN,"B, N",2,0.07735396750000056,Cubic,216,F-43m,4.4506,False,False
mp-252,BeTe,"Be, Te",2,0.0,Cubic,216,F-43m,2.0172999999999996,False,False
mp-761471,Co5O8,"Co, O",2,0.020151845384616784,Cubic,216,F-43m,0.0,True,True
mp-1986,ZnO,"O, Zn",2,0.008068930000000307,Cubic,216,F-43m,0.6308999999999999,False,False
mp-1778,BeO,"Be, O",2,0.006973667500000502,Cubic,216,F-43m,6.847700000000001,True,False
mp-1213530,Cu41Sn11,"Cu, Sn",2,0.02744226913461567,Cubic,216,F-43m,0.0,True,True
mp-1001833,InBi,"Bi, In",2,0.0,Cubic,216,F-43m,0.0,True,True
mp-573471,Li17Sn4,"Li, Sn",2,0.0,Cubic,216,F-43m,0.0,False,True
mp-1200708,Sc44Ir7,"Ir, Sc",2,0.0,Cubic,216,F-43m,0.0,False,True
mp-1197508,Ho11Cd45,"Cd, Ho",2,0.0,Cubic,216,F-43m,0.0,False,True
mp-2838,UNi5,"Ni, U",2,0.0,Cubic,216,F-43m,0.0,False,True
mp-1209947,Sc44Ru7,"Ru, Sc",2,0.0,Cubic,216,F-43m,0.0,True,True
mp-830,GaN,"Ga, N",2,0.0067312375000003755,Cubic,216,F-43m,1.5701000000000005,True,False
mp-1228158,Al5S8,"Al, S",2,0.08005848239182711,Cubic,216,F-43m,0.0,True,True
mp-1201907,Ba20Hg103,"Ba, Hg",2,0.0019667218292676036,Cubic,216,F-43m,0.1802999999999999,False,False
mp-32857,Cu13Se8,"Cu, Se",2,0.07648088333333192,Cubic,216,F-43m,0.0,True,True
mp-1156,GaSb,"Ga, Sb",2,0.0,Cubic,216,F-43m,0.0,False,True
mp-1009130,MnN,"Mn, N",2,0.01508596781249949,Cubic,216,F-43m,0.08389999999999986,True,False
mp-20351,InP,"In, P",2,0.0,Cubic,216,F-43m,0.4546000000000001,False,False
mp-2534,GaAs,"As, Ga",2,0.0,Cubic,216,F-43m,0.18610000000000015,False,False
mp-1204948,La11Hg45,"Hg, La",2,0.0025207833928604373,Cubic,216,F-43m,0.0,False,True
mp-406,CdTe,"Cd, Te",2,0.0,Cubic,216,F-43m,0.5846000000000002,False,False
mp-2439,ZrNi5,"Ni, Zr",2,0.0005126866666671503,Cubic,216,F-43m,0.0,False,True
mp-573651,Li22Pb5,"Li, Pb",2,0.008461113333332992,Cubic,216,F-43m,0.0,False,True
mp-570153,Mg44Rh7,"Mg, Rh",2,0.0,Cubic,216,F-43m,0.0,False,True
mp-1479,BP,"B, P",2,0.0,Cubic,216,F-43m,1.2434999999999992,False,False
mp-6988,FeN,"Fe, N",2,0.0,Cubic,216,F-43m,0.0,False,True
mp-1077534,PaPt5,"Pa, Pt",2,0.0,Cubic,216,F-43m,0.0,False,True
mp-1550,AlP,"Al, P",2,0.0,Cubic,216,F-43m,1.6294000000000004,False,False
mp-580364,HoCu5,"Cu, Ho",2,0.015987703333331993,Cubic,216,F-43m,0.0,False,True
mp-1205189,Dy11Cd45,"Cd, Dy",2,0.0,Cubic,216,F-43m,0.0,False,True
mp-1220,Be5Au,"Au, Be",2,0.0,Cubic,216,F-43m,0.0,False,True
mp-1072444,UPt5,"Pt, U",2,0.0,Cubic,216,F-43m,0.0,False,True
mp-2172,AlAs,"Al, As",2,0.0,Cubic,216,F-43m,1.5036999999999998,False,False
mp-1205000,Nd11Cd45,"Cd, Nd",2,0.0,Cubic,216,F-43m,0.0,False,True
mp-22913,CuBr,"Br, Cu",2,0.0,Cubic,216,F-43m,0.48709999999999987,False,False
mp-2624,AlSb,"Al, Sb",2,0.0,Cubic,216,F-43m,1.2255000000000003,False,False
mp-569673,PrI2,"I, Pr",2,0.0,Cubic,216,F-43m,0.0,False,True
mp-760381,CuS,"Cu, S",2,0.009944081666665383,Cubic,216,F-43m,0.0,True,True
mp-1700,AlN,"Al, N",2,0.020749162499999585,Cubic,216,F-43m,3.3056,True,False
mp-30603,ZrCu5,"Cu, Zr",2,0.009781456785713516,Cubic,216,F-43m,0.0,False,True
mp-1080388,PuPt5,"Pt, Pu",2,0.09909516333333634,Cubic,216,F-43m,0.0,False,True
mp-1018126,GaBi,"Bi, Ga",2,0.0023444462500012975,Cubic,216,F-43m,0.0,True,True
mp-574275,Li17Pb4,"Li, Pb",2,0.0,Cubic,216,F-43m,0.0,False,True
mp-568920,CaAu5,"Au, Ca",2,0.0,Cubic,216,F-43m,0.0,False,True
mp-22408,CoO,"Co, O",2,0.0,Cubic,216,F-43m,0.5880000000000001,False,False
mp-1199872,Pr11Hg45,"Hg, Pr",2,0.027298406428570843,Cubic,216,F-43m,0.0,False,True
mp-1229052,Al41V4,"Al, V",2,0.027362764888888336,Cubic,216,F-43m,0.0,True,True
mp-1212554,Mg29Pd4,"Mg, Pd",2,0.08545544651515158,Cubic,216,F-43m,0.0,True,True
mp-13031,MgSe,"Mg, Se",2,0.00593989499999914,Cubic,216,F-43m,2.5476,True,False
mp-2490,GaP,"Ga, P",2,0.0,Cubic,216,F-43m,1.6038999999999999,False,False
mp-31499,Mg29Ir4,"Ir, Mg",2,0.001208079531026307,Cubic,216,F-43m,0.0,False,True
mp-8062,SiC,"C, Si",2,0.00016855236842161503,Cubic,216,F-43m,1.3669000000000002,False,False
mp-569516,HfNi5,"Hf, Ni",2,0.02767773183333233,Cubic,216,F-43m,0.0,False,True
mp-1123,HgS,"Hg, S",2,0.0,Cubic,216,F-43m,0.0,False,True
mp-1204063,Li22Ge5,"Ge, Li",2,0.014406307376543026,Cubic,216,F-43m,0.0,False,True
mp-22895,CuI,"Cu, I",2,0.006241591249999345,Cubic,216,F-43m,1.1762999999999995,False,False
mp-13032,MgS,"Mg, S",2,0.034344234999999834,Cubic,216,F-43m,3.3692,True,False
mp-1204723,Er11Cd45,"Cd, Er",2,0.0009932550892859382,Cubic,216,F-43m,0.0,False,True
mp-20411,InN,"In, N",2,0.013316422499999092,Cubic,216,F-43m,0.0,True,True
mp-1224137,In5S8,"In, S",2,0.09414893912259537,Cubic,216,F-43m,0.0,True,True
mp-1077262,TbCu5,"Cu, Tb",2,0.02386365833333315,Cubic,216,F-43m,0.0,False,True
mp-1783,MnS,"Mn, S",2,0.07896040750000033,Cubic,216,F-43m,0.0,False,True
mp-1002219,TlSb,"Sb, Tl",2,0.07102523500000046,Cubic,216,F-43m,0.0,True,True
mp-1009770,RuN,"N, Ru",2,0.07916731249999742,Cubic,216,F-43m,0.0,True,True
mp-1219182,SiGe,"Ge, Si",2,0.016203427499998924,Cubic,216,F-43m,0.6059999999999999,True,False
mp-1018157,CrN,"Cr, N",2,0.07032058499999927,Cubic,216,F-43m,0.0,True,True
mp-29720,Li21Si5,"Li, Si",2,0.0,Cubic,216,F-43m,0.0,False,True
mp-820,HgSe,"Hg, Se",2,0.0014143849999967983,Cubic,216,F-43m,0.0,False,True
mp-542598,Li22Si5,"Li, Si",2,0.017131885709877004,Cubic,216,F-43m,0.0,False,True
mp-2469,CdS,"Cd, S",2,0.0027132225000006116,Cubic,216,F-43m,1.0492,False,False
mp-1204245,Pr11Cd45,"Cd, Pr",2,0.0,Cubic,216,F-43m,0.0,False,True