material_id,formula,elements,num_elements,energy_above_hull,crystal_system,spacegroup_number,spacegroup_symbol,band_gap,theoretical,is_metal
mp-27162,Sc3Co,"Co, Sc",2,0.026186492499999048,Orthorhombic,62,Pnma,0.0,False,True
mp-672240,TbNi,"Ni, Tb",2,0.0,Orthorhombic,62,Pnma,0.0,False,True
mp-20857,CoB,"B, Co",2,0.0,Orthorhombic,62,Pnma,0.0,False,True
mp-1106276,Tb3Ir,"Ir, Tb",2,0.0,Orthorhombic,62,Pnma,0.0,False,True
mp-304,Ca2Ge,"Ca, Ge",2,0.0017492858333341132,Orthorhombic,62,Pnma,0.29990000000000006,False,False
mp-1209252,ReF6,"F, Re",2,0.0012449760714261515,Orthorhombic,62,Pnma,0.0,True,True
mp-754553,Zn3N2,"N, Zn",2,0.009962077500000888,Orthorhombic,62,Pnma,0.0,True,True
mp-21238,ThSi,"Si, Th",2,0.0,Orthorhombic,62,Pnma,0.0,False,True
mp-691,SnSe,"Se, Sn",2,0.0,Orthorhombic,62,Pnma,0.5159000000000002,False,False
mp-365,MgB4,"B, Mg",2,0.0,Orthorhombic,62,Pnma,0.36409999999999965,False,False
mp-542640,GePt,"Ge, Pt",2,0.0,Orthorhombic,62,Pnma,0.0,False,True
mp-1078899,LuNi,"Lu, Ni",2,0.0,Orthorhombic,62,Pnma,0.0,False,True
mp-21911,PRu2,"P, Ru",2,0.0,Orthorhombic,62,Pnma,0.0,False,True
mp-636498,In3Ir,"In, Ir",2,0.0,Orthorhombic,62,Pnma,0.0,False,True
mp-1025444,ErPt,"Er, Pt",2,0.0,Orthorhombic,62,Pnma,0.0,False,True
mp-30838,ThPd,"Pd, Th",2,0.0,Orthorhombic,62,Pnma,0.0,False,True
mp-1188323,Ti2O3,"O, Ti",2,0.0015292189999982497,Orthorhombic,62,Pnma,0.11629999999999896,False,False
mp-1189116,Lu3Co,"Co, Lu",2,0.0,Orthorhombic,62,Pnma,0.0,False,True
mp-8956,Ho2S3,"Ho, S",2,0.010577942833336351,Orthorhombic,62,Pnma,0.6113999999999997,False,False
mp-30698,PrCu6,"Cu, Pr",2,0.010556721071429465,Orthorhombic,62,Pnma,0.0,False,True
mp-1188441,TiCu4,"Cu, Ti",2,0.0,Orthorhombic,62,Pnma,0.0,False,True
mp-1025448,YPt,"Pt, Y",2,0.0,Orthorhombic,62,Pnma,0.0,False,True
mp-1207789,Y5Sb3,"Sb, Y",2,0.0062263593749989354,Orthorhombic,62,Pnma,0.0,True,True
mp-1189265,NaCl3,"Cl, Na",2,0.0799424025000004,Orthorhombic,62,Pnma,2.7105,True,False
mp-1344053,CoO2,"Co, O",2,0.025268048750000993,Orthorhombic,62,Pnma,0.32030000000000003,True,False
mp-17383,Ni2Ge,"Ge, Ni",2,0.004732982500000205,Orthorhombic,62,Pnma,0.0,False,True
mp-1200672,Sm5Pb4,"Pb, Sm",2,0.0,Orthorhombic,62,Pnma,0.0,False,True
mp-569322,Te2Ir,"Ir, Te",2,0.01803992124999354,Orthorhombic,62,Pnma,0.0,True,True
mp-1860,LaSi,"La, Si",2,0.013063911250000615,Orthorhombic,62,Pnma,0.0,False,True
mp-1202267,Lu5Pt4,"Lu, Pt",2,0.0,Orthorhombic,62,Pnma,0.0,False,True
mp-30669,ThGa,"Ga, Th",2,0.0,Orthorhombic,62,Pnma,0.0,False,True
mp-696,SiPt,"Pt, Si",2,0.0,Orthorhombic,62,Pnma,0.0,False,True
mp-1189101,La3Os,"La, Os",2,0.0,Orthorhombic,62,Pnma,0.0,False,True
mp-1102240,SrF2,"F, Sr",2,0.06457278833333113,Orthorhombic,62,Pnma,6.341,False,False
mp-1189188,Ho3Ni,"Ho, Ni",2,0.0,Orthorhombic,62,Pnma,0.0,False,True
mp-1195265,SiO2,"O, Si",2,0.01200437673610999,Orthorhombic,62,Pnma,5.7794,False,False
mp-21673,Ge2Pt3,"Ge, Pt",2,0.0,Orthorhombic,62,Pnma,0.0,False,True
mp-1005,FeP,"Fe, P",2,0.0,Orthorhombic,62,Pnma,0.0,False,True
mp-22600,Sc3P2,"P, Sc",2,0.0,Orthorhombic,62,Pnma,0.0,False,True
mp-1203497,Sr5Pt4,"Pt, Sr",2,0.004042353055552894,Orthorhombic,62,Pnma,0.0376000000000003,False,False
mp-1379199,V3O7,"O, V",2,0.06325666175000144,Orthorhombic,62,Pnma,1.4513,True,False
mp-640791,Nd5Si4,"Nd, Si",2,0.0008442502777761263,Orthorhombic,62,Pnma,0.0,False,True
mp-1477,BaSi2,"Ba, Si",2,0.0,Orthorhombic,62,Pnma,0.7812999999999999,False,False
mp-17564,Ca5Sb3,"Ca, Sb",2,0.0,Orthorhombic,62,Pnma,0.0,False,True
mp-7092,TiSi,"Si, Ti",2,0.0,Orthorhombic,62,Pnma,0.0,False,True
mp-13360,Y5Ge4,"Ge, Y",2,0.0,Orthorhombic,62,Pnma,0.0,False,True
mp-776152,V2O5,"O, V",2,0.004515061428572054,Orthorhombic,62,Pnma,1.444,True,False
mp-982385,Np3S5,"Np, S",2,0.0,Orthorhombic,62,Pnma,0.0,False,True
mp-601371,GdSi,"Gd, Si",2,0.0,Orthorhombic,62,Pnma,0.0,False,True
mp-1047075,MoO2,"Mo, O",2,0.07996099333333184,Orthorhombic,62,Pnma,1.2937000000000003,True,False
mp-21246,Ba2Pb,"Ba, Pb",2,0.0,Orthorhombic,62,Pnma,0.028799999999999937,False,False
mp-351,SiNi,"Ni, Si",2,0.0,Orthorhombic,62,Pnma,0.0,False,True
mp-23237,BiF3,"Bi, F",2,0.0,Orthorhombic,62,Pnma,4.6808,False,False
mp-1509,Sn2S3,"S, Sn",2,0.0,Orthorhombic,62,Pnma,0.7774000000000001,False,False
mp-22575,Sc3As2,"As, Sc",2,0.009147192500002177,Orthorhombic,62,Pnma,0.0,False,True
mp-1101892,CeAs2,"As, Ce",2,0.05150930000000287,Orthorhombic,62,Pnma,0.06930000000000014,True,False
mp-1101938,FeB2,"B, Fe",2,0.0,Orthorhombic,62,Pnma,0.5153999999999996,True,False
mp-1188757,Y3Os,"Os, Y",2,0.0,Orthorhombic,62,Pnma,0.0,False,True
mp-30757,La5Sn4,"La, Sn",2,0.0,Orthorhombic,62,Pnma,0.0,False,True
mp-1189967,Pr3Os,"Os, Pr",2,0.0,Orthorhombic,62,Pnma,0.0,False,True
mp-11871,HoNi,"Ho, Ni",2,0.0,Orthorhombic,62,Pnma,0.0,False,True
mp-22126,U2S3,"S, U",2,0.0,Orthorhombic,62,Pnma,0.0,False,True
mp-21182,Sc3P2,"P, Sc",2,0.018659659500000814,Orthorhombic,62,Pnma,0.0,False,True
mp-1200463,U3Te5,"Te, U",2,0.045420258124998725,Orthorhombic,62,Pnma,0.0,False,True
mp-1102728,Dy2Al,"Al, Dy",2,0.0,Orthorhombic,62,Pnma,0.0,False,True
mp-20327,TiP2,"P, Ti",2,0.0062354065079386345,Orthorhombic,62,Pnma,0.0,False,True
mp-1195860,Er5Ge4,"Er, Ge",2,0.0,Orthorhombic,62,Pnma,0.0,False,True
mp-29646,HfAs2,"As, Hf",2,0.0,Orthorhombic,62,Pnma,0.0,False,True
mp-647343,PBr7,"Br, P",2,0.0,Orthorhombic,62,Pnma,1.2227,False,False
mp-1188125,Sm3Ru,"Ru, Sm",2,0.0,Orthorhombic,62,Pnma,0.0,False,True
mp-21163,SiPt3,"Pt, Si",2,0.045652471249994164,Orthorhombic,62,Pnma,0.0,False,True
mp-1105945,Sm3Ni,"Ni, Sm",2,0.0,Orthorhombic,62,Pnma,0.0,False,True
mp-16502,Ho2Al,"Al, Ho",2,0.0,Orthorhombic,62,Pnma,0.0,False,True
mp-764959,VF5,"F, V",2,0.00748707791666714,Orthorhombic,62,Pnma,2.8066000000000004,True,False
mp-1102131,Sr2Pd,"Pd, Sr",2,0.0,Orthorhombic,62,Pnma,0.0,False,True
mp-1101848,Nd2Al,"Al, Nd",2,0.009160500416669493,Orthorhombic,62,Pnma,0.0,False,True
mp-605663,AlPd5,"Al, Pd",2,0.0,Orthorhombic,62,Pnma,0.0,False,True
mp-1198474,Dy5Bi3,"Bi, Dy",2,0.0038159028124979955,Orthorhombic,62,Pnma,0.0,False,True
mp-22204,Co2P,"Co, P",2,0.0,Orthorhombic,62,Pnma,0.0,False,True
mp-1851,SnPd2,"Pd, Sn",2,0.0,Orthorhombic,62,Pnma,0.0,False,True
mp-1207777,Y3Pd,"Pd, Y",2,0.0,Orthorhombic,62,Pnma,0.0,False,True
mp-2139,BaGe2,"Ba, Ge",2,0.0,Orthorhombic,62,Pnma,0.5255000000000001,False,False
mp-1079915,PrAu,"Au, Pr",2,0.0014783462500034261,Orthorhombic,62,Pnma,0.0,False,True
mp-1201836,Ti5As3,"As, Ti",2,0.0,Orthorhombic,62,Pnma,0.0,False,True
mp-1101843,PbO2,"O, Pb",2,0.05656316083333124,Orthorhombic,62,Pnma,0.0,False,True
mp-1200696,Ce5Ge4,"Ce, Ge",2,0.0,Orthorhombic,62,Pnma,0.0,False,True
mp-21799,Ta5P3,"P, Ta",2,0.029597869479168537,Orthorhombic,62,Pnma,0.0,False,True
mp-505319,PtF6,"F, Pt",2,0.0,Orthorhombic,62,Pnma,0.0,False,True
mp-29453,SmCl2,"Cl, Sm",2,0.07576974722222118,Orthorhombic,62,Pnma,0.0,False,True
mp-1101944,TlPd2,"Pd, Tl",2,0.007179688214286273,Orthorhombic,62,Pnma,0.0,False,True
mp-1199486,Gd5Si4,"Gd, Si",2,0.0,Orthorhombic,62,Pnma,0.0,False,True
mp-2173,P2O5,"O, P",2,0.0,Orthorhombic,62,Pnma,4.8374,False,False
mp-11840,BaAg,"Ag, Ba",2,0.0,Orthorhombic,62,Pnma,0.0,False,True
mp-1209816,NpF6,"F, Np",2,0.0,Orthorhombic,62,Pnma,1.1546,True,False
mp-23179,NiBi3,"Bi, Ni",2,0.0,Orthorhombic,62,Pnma,0.0,False,True
mp-7475,La2S3,"La, S",2,0.0,Orthorhombic,62,Pnma,1.0358,False,False
mp-680294,Tl2Cl3,"Cl, Tl",2,0.0,Orthorhombic,62,Pnma,1.6868000000000003,False,False
mp-1193593,BaHg6,"Ba, Hg",2,0.0,Orthorhombic,62,Pnma,0.0,False,True
mp-1102657,Y2Pt,"Pt, Y",2,0.0,Orthorhombic,62,Pnma,0.0,False,True
mp-1203932,Ho5Pb4,"Ho, Pb",2,0.0,Orthorhombic,62,Pnma,0.0,False,True
mp-1208328,TcF6,"F, Tc",2,0.0,Orthorhombic,62,Pnma,0.0,True,True
mp-1354190,MnO2,"Mn, O",2,0.04093012180555533,Orthorhombic,62,Pnma,0.6174999999999999,True,False
mp-737,Hf5Ge4,"Ge, Hf",2,0.0,Orthorhombic,62,Pnma,0.0,False,True
mp-31465,Ho5Bi3,"Bi, Ho",2,0.0,Orthorhombic,62,Pnma,0.0,False,True
mp-12900,HoSi,"Ho, Si",2,0.0,Orthorhombic,62,Pnma,0.0,False,True
mp-1101816,Lu2Au,"Au, Lu",2,0.0,Orthorhombic,62,Pnma,0.0,False,True
mp-556767,ClF3,"Cl, F",2,0.0029946146875001745,Orthorhombic,62,Pnma,2.6321000000000003,False,False
mp-1981,Ba2Sn,"Ba, Sn",2,0.0,Orthorhombic,62,Pnma,0.0,False,True
mp-1011696,Cs2Se,"Cs, Se",2,0.004232759166664213,Orthorhombic,62,Pnma,1.8026999999999997,False,False
mp-1105609,Tb3Rh,"Rh, Tb",2,0.0,Orthorhombic,62,Pnma,0.0,False,True
mp-1208406,Ta2N3,"N, Ta",2,0.06056850350000076,Orthorhombic,62,Pnma,0.0,True,True
mp-11428,GdPt,"Gd, Pt",2,0.0,Orthorhombic,62,Pnma,0.0,False,True
mp-1208046,Tm5Bi3,"Bi, Tm",2,0.0,Orthorhombic,62,Pnma,0.0,True,True
mp-980752,Sm3Co,"Co, Sm",2,0.0,Orthorhombic,62,Pnma,0.0,False,True
mp-25288,V2O5,"O, V",2,0.013959122857142958,Orthorhombic,62,Pnma,2.3402,False,False
mp-28974,TiF4,"F, Ti",2,0.0,Orthorhombic,62,Pnma,4.166,False,False
mp-1176437,MnF3,"F, Mn",2,0.0018928274999989725,Orthorhombic,62,Pnma,0.0,True,True
mp-1105836,Sc2S3,"S, Sc",2,0.09300529899999965,Orthorhombic,62,Pnma,1.3929,True,False
mp-389,SiPd,"Pd, Si",2,0.001982122083333593,Orthorhombic,62,Pnma,0.0,False,True
mp-600060,SiO2,"O, Si",2,0.01180798131944627,Orthorhombic,62,Pnma,5.683199999999999,True,False
mp-1189094,Eu3Au,"Au, Eu",2,0.0,Orthorhombic,62,Pnma,0.0,False,True
mp-541189,P4Se3,"P, Se",2,0.014978764523808863,Orthorhombic,62,Pnma,2.1599999999999997,False,False
mp-1080443,YCu,"Cu, Y",2,0.0,Orthorhombic,62,Pnma,0.0,True,True
mp-567744,SrBr2,"Br, Sr",2,0.0012161111666664226,Orthorhombic,62,Pnma,4.5488,False,False
mp-27309,VF5,"F, V",2,0.0,Orthorhombic,62,Pnma,2.9917000000000002,False,False
mp-1080485,NdPt,"Nd, Pt",2,0.0,Orthorhombic,62,Pnma,0.0,False,True
mp-569094,P4Se3,"P, Se",2,0.012687520505952676,Orthorhombic,62,Pnma,2.1677,False,False
mp-12741,MgPd2,"Mg, Pd",2,0.0,Orthorhombic,62,Pnma,0.0,False,True
mp-1080709,NdAu,"Au, Nd",2,0.0025884837499958735,Orthorhombic,62,Pnma,0.0,False,True
mp-1189835,Er3Pt,"Er, Pt",2,0.0041676335416624966,Orthorhombic,62,Pnma,0.0,False,True
mp-16726,LiB,"B, Li",2,0.07071931750000005,Orthorhombic,62,Pnma,0.0,True,True
mp-30103,AuF5,"Au, F",2,0.0,Orthorhombic,62,Pnma,0.7890000000000001,False,False
mp-568865,ZrTe,"Te, Zr",2,0.026025311250002403,Orthorhombic,62,Pnma,0.0,False,True
mp-568846,TaBr5,"Br, Ta",2,0.0,Orthorhombic,62,Pnma,2.0282999999999998,False,False
mp-31464,Dy5Bi3,"Bi, Dy",2,0.0,Orthorhombic,62,Pnma,0.0,False,True
mp-1188155,ReP3,"P, Re",2,0.010871705625003614,Orthorhombic,62,Pnma,0.20690000000000097,False,False
mp-1202228,Dy5Pt4,"Dy, Pt",2,0.008831197500001053,Orthorhombic,62,Pnma,0.0,False,True
mp-1197590,Ho3Ga5,"Ga, Ho",2,0.0,Orthorhombic,62,Pnma,0.0,False,True
mp-27356,AsO2,"As, O",2,0.00379810145833126,Orthorhombic,62,Pnma,3.3759,False,False
mp-1190609,VO2,"O, V",2,0.07950119249998622,Orthorhombic,62,Pnma,0.0,False,True
mp-1080312,CeSe2,"Ce, Se",2,0.06865350833333661,Orthorhombic,62,Pnma,0.06799999999999962,True,False
mp-27543,As4S3,"As, S",2,0.006355647857141378,Orthorhombic,62,Pnma,2.3035,False,False
mp-1189478,Er3Ir,"Er, Ir",2,0.0,Orthorhombic,62,Pnma,0.0,False,True
mp-1203494,Y5Sn4,"Sn, Y",2,0.0,Orthorhombic,62,Pnma,0.0,False,True
mp-30677,Tm3Ga5,"Ga, Tm",2,0.0,Orthorhombic,62,Pnma,0.0,False,True
mp-1190011,Ho3Os,"Ho, Os",2,0.0,Orthorhombic,62,Pnma,0.0,False,True
mp-13392,NdCu,"Cu, Nd",2,0.0,Orthorhombic,62,Pnma,0.0,False,True
mp-2420,PW,"P, W",2,0.0,Orthorhombic,62,Pnma,0.0,False,True
mp-672261,Ce3Ru,"Ce, Ru",2,0.02973423361111127,Orthorhombic,62,Pnma,0.0,False,True
mp-23199,BaCl2,"Ba, Cl",2,0.006785772499999787,Orthorhombic,62,Pnma,5.1132,False,False
mp-1125,Li2S,"Li, S",2,0.061509288333333245,Orthorhombic,62,Pnma,3.8953999999999995,False,False
mp-1102243,Eu2Cu,"Cu, Eu",2,0.0011603833333317937,Orthorhombic,62,Pnma,0.0,False,True
mp-1204528,Th5Sn4,"Sn, Th",2,0.05233136111110781,Orthorhombic,62,Pnma,0.0,False,True
mp-555585,BaF2,"Ba, F",2,0.01871512666666586,Orthorhombic,62,Pnma,6.855300000000001,False,False
mp-756041,CrO3,"Cr, O",2,0.0991986883750009,Orthorhombic,62,Pnma,1.2356,True,False
mp-1101851,Mg2Si,"Mg, Si",2,0.0876272716666664,Orthorhombic,62,Pnma,0.0,True,True
mp-12175,Y5Pt4,"Pt, Y",2,0.00771099972222089,Orthorhombic,62,Pnma,0.0,False,True
mp-1025438,LuPt,"Lu, Pt",2,0.0,Orthorhombic,62,Pnma,0.0,False,True
mp-1105761,Ca3Hg,"Ca, Hg",2,0.002973187500000307,Orthorhombic,62,Pnma,0.0,False,True
mp-28329,TlI3,"I, Tl",2,0.0,Orthorhombic,62,Pnma,1.6963,False,False
mp-15257,Tb2Se3,"Se, Tb",2,0.0,Orthorhombic,62,Pnma,0.3411000000000004,False,False
mp-2738,DyNi,"Dy, Ni",2,0.0,Orthorhombic,62,Pnma,0.0,False,True
mp-22626,OsF6,"F, Os",2,0.0,Orthorhombic,62,Pnma,0.0,False,True
mp-9967,NdSi,"Nd, Si",2,0.0,Orthorhombic,62,Pnma,0.0,False,True
mp-1102915,Mg2Pb,"Mg, Pb",2,0.06454494999999838,Orthorhombic,62,Pnma,0.0,False,True
mp-208,GeIr,"Ge, Ir",2,0.0,Orthorhombic,62,Pnma,0.0,False,True
mp-1188367,ErZn3,"Er, Zn",2,0.0,Orthorhombic,62,Pnma,0.0,False,True
mp-172,Nd5Ge4,"Ge, Nd",2,0.0,Orthorhombic,62,Pnma,0.0,False,True
mp-665747,EuAg,"Ag, Eu",2,0.0,Orthorhombic,62,Pnma,0.0,False,True
mp-569152,SnCl2,"Cl, Sn",2,0.00045985916666424487,Orthorhombic,62,Pnma,3.0724,False,False
mp-621581,P3Rh4,"P, Rh",2,0.024386125595238894,Orthorhombic,62,Pnma,0.0,False,True
mp-17813,ZrAu4,"Au, Zr",2,0.0,Orthorhombic,62,Pnma,0.0,False,True
mp-1103139,Ca2Hg,"Ca, Hg",2,0.0,Orthorhombic,62,Pnma,0.0,False,True
mp-755894,Li2O,"Li, O",2,0.0843597108333336,Orthorhombic,62,Pnma,5.2421999999999995,True,False
mp-978,Sr2Sn,"Sn, Sr",2,0.0,Orthorhombic,62,Pnma,0.15239999999999965,False,False
mp-1314,Li12Si7,"Li, Si",2,0.0035403334962404998,Orthorhombic,62,Pnma,0.0,False,True
mp-642301,Y7Te2,"Te, Y",2,0.05770468500000092,Orthorhombic,62,Pnma,0.0,False,True
mp-1105844,Sr3Hg,"Hg, Sr",2,0.0035957093749976465,Orthorhombic,62,Pnma,0.0,True,True
mp-1188983,TbZn3,"Tb, Zn",2,0.0,Orthorhombic,62,Pnma,0.0,False,True
mp-1078589,EuAu,"Au, Eu",2,0.0,Orthorhombic,62,Pnma,0.0,False,True
mp-19855,Cr7C3,"C, Cr",2,0.0005932423750003579,Orthorhombic,62,Pnma,0.0,False,True
mp-28500,UTe5,"Te, U",2,0.04622810416666567,Orthorhombic,62,Pnma,0.0,False,True
mp-557259,MoF6,"F, Mo",2,0.0,Orthorhombic,62,Pnma,4.182799999999999,False,False
mp-1523,ZrP2,"P, Zr",2,0.0,Orthorhombic,62,Pnma,0.0,False,True
mp-28601,NbBr5,"Br, Nb",2,0.0,Orthorhombic,62,Pnma,1.5583,False,False
mp-16571,Ca7Ge6,"Ca, Ge",2,0.015158128653846248,Orthorhombic,62,Pnma,0.0,False,True
mp-1196361,Pr5Sn4,"Pr, Sn",2,0.0,Orthorhombic,62,Pnma,0.0,False,True
mp-1105501,Dy3Rh,"Dy, Rh",2,0.0,Orthorhombic,62,Pnma,0.0,False,True
mp-22872,SbCl3,"Cl, Sb",2,0.0,Orthorhombic,62,Pnma,3.7476,False,False
mp-669720,Ni3Sn2,"Ni, Sn",2,0.0,Orthorhombic,62,Pnma,0.0,False,True
mp-619501,U2Te3,"Te, U",2,0.0,Orthorhombic,62,Pnma,0.0,False,True
mp-2416,YF3,"F, Y",2,0.0,Orthorhombic,62,Pnma,7.545699999999999,False,False
mp-22536,U3S5,"S, U",2,0.0,Orthorhombic,62,Pnma,0.0,False,True
mp-1105669,NdZn3,"Nd, Zn",2,0.0,Orthorhombic,62,Pnma,0.0,False,True
mp-1106290,Er2S3,"Er, S",2,0.014340711166664022,Orthorhombic,62,Pnma,0.6266999999999996,False,False
mp-623038,Nb5As3,"As, Nb",2,0.0,Orthorhombic,62,Pnma,0.0,False,True
mp-20937,Cr3C2,"C, Cr",2,0.0,Orthorhombic,62,Pnma,0.0,False,True
mp-974,Tm2S3,"S, Tm",2,0.03450978525000181,Orthorhombic,62,Pnma,0.6559999999999997,False,False
mp-622565,Ho3Co,"Co, Ho",2,0.0,Orthorhombic,62,Pnma,0.0,False,True
mp-1190274,Co3Sn2,"Co, Sn",2,0.07398159866666632,Orthorhombic,62,Pnma,0.0,False,True
mp-1188656,Nd3Os,"Nd, Os",2,0.0,Orthorhombic,62,Pnma,0.0,False,True
mp-21576,Sc2Te,"Sc, Te",2,0.0,Orthorhombic,62,Pnma,0.0,False,True
mp-540786,Mo4O11,"Mo, O",2,0.007467790952379261,Orthorhombic,62,Pnma,0.0,False,True
mp-2833,IrS2,"Ir, S",2,0.0,Orthorhombic,62,Pnma,0.5371000000000006,False,False
mp-1201296,Nd5Rh4,"Nd, Rh",2,0.0,Orthorhombic,62,Pnma,0.0,False,True
mp-646392,Dy3Co,"Co, Dy",2,0.0,Orthorhombic,62,Pnma,0.0,False,True
mp-17399,Ba5Sb4,"Ba, Sb",2,1.4264166663835454e-05,Orthorhombic,62,Pnma,0.4347000000000003,False,False
mp-680536,Ce5Ir4,"Ce, Ir",2,0.0,Orthorhombic,62,Pnma,0.0,False,True
mp-560553,IrF6,"F, Ir",2,0.0,Orthorhombic,62,Pnma,0.7714000000000003,False,False
mp-30884,YZn3,"Y, Zn",2,0.0,Orthorhombic,62,Pnma,0.0,False,True
mp-1102093,EuI2,"Eu, I",2,0.0,Orthorhombic,62,Pnma,1.3259000000000003,False,False
mp-29848,IF3,"F, I",2,0.08642193779999907,Orthorhombic,62,Pnma,2.1132,False,False
mp-1181926,CaH2,"Ca, H",2,0.05550223833333323,Orthorhombic,62,Pnma,0.7047000000000003,True,False
mp-27606,ZrAs2,"As, Zr",2,0.0,Orthorhombic,62,Pnma,0.0,False,True
mp-1198601,Tb5Bi3,"Bi, Tb",2,0.006226784687498821,Orthorhombic,62,Pnma,0.0,False,True
mp-755738,Rb2O,"O, Rb",2,0.03195165833333391,Orthorhombic,62,Pnma,1.6455,True,False
mp-28029,TcP3,"P, Tc",2,0.0,Orthorhombic,62,Pnma,0.45060000000000144,False,False
mp-1080204,Mn3N4,"Mn, N",2,0.07629258857142851,Orthorhombic,62,Pnma,0.0,True,True
mp-1196980,Dy3Ga5,"Dy, Ga",2,0.020637629999995966,Orthorhombic,62,Pnma,0.0,False,True
mp-22079,AsRh,"As, Rh",2,0.026917590833335225,Orthorhombic,62,Pnma,0.0,False,True
mp-1025513,ZrGe,"Ge, Zr",2,0.0,Orthorhombic,62,Pnma,0.0,False,True
mp-2275,UF6,"F, U",2,0.0,Orthorhombic,62,Pnma,2.7943000000000002,False,False
mp-1188131,Er3Os,"Er, Os",2,0.0,Orthorhombic,62,Pnma,0.0,False,True
mp-570356,Ca5Ir,"Ca, Ir",2,0.0,Orthorhombic,62,Pnma,0.0,False,True
mp-1118,SiNi2,"Ni, Si",2,0.0,Orthorhombic,62,Pnma,0.0,False,True
mp-30385,Ho2Au,"Au, Ho",2,0.0,Orthorhombic,62,Pnma,0.0,False,True
mp-585949,CaCu,"Ca, Cu",2,0.0,Orthorhombic,62,Pnma,0.0,False,True
mp-1198033,Tb5Pb4,"Pb, Tb",2,0.0,Orthorhombic,62,Pnma,0.0,False,True
mp-1435,SrZn5,"Sr, Zn",2,0.0,Orthorhombic,62,Pnma,0.0,False,True
mp-1196458,Eu5Pt4,"Eu, Pt",2,0.0,Orthorhombic,62,Pnma,0.0,False,True
mp-568745,Rb2Te,"Rb, Te",2,0.03125223916666675,Orthorhombic,62,Pnma,1.8197999999999999,True,False
mp-1181747,CrO2,"Cr, O",2,0.05654767916663417,Orthorhombic,62,Pnma,0.9693,False,False
mp-21559,Zr2Te,"Te, Zr",2,0.0013770710317437818,Orthorhombic,62,Pnma,0.0,False,True
mp-777479,VO2,"O, V",2,0.06811530416665157,Orthorhombic,62,Pnma,1.3786999999999998,True,False
mp-1106170,Gd3Pt,"Gd, Pt",2,0.0,Orthorhombic,62,Pnma,0.0,False,True
mp-20541,V2P,"P, V",2,0.0,Orthorhombic,62,Pnma,0.0,False,True
mp-1207785,Y3Ir,"Ir, Y",2,0.0,Orthorhombic,62,Pnma,0.0,False,True
mp-568446,Er5Si4,"Er, Si",2,0.023615374444446502,Orthorhombic,62,Pnma,0.0,False,True
mp-11250,Mg2Au,"Au, Mg",2,0.0,Orthorhombic,62,Pnma,0.0,False,True
mp-1025489,SmSi,"Si, Sm",2,0.0,Orthorhombic,62,Pnma,0.0,False,True
mp-1199467,Lu5Ge4,"Ge, Lu",2,0.0,Orthorhombic,62,Pnma,0.0,False,True
mp-1232181,Pm2Se3,"Pm, Se",2,0.0,Orthorhombic,62,Pnma,0.48550000000000004,True,False
mp-1105598,Y3Co,"Co, Y",2,0.0,Orthorhombic,62,Pnma,0.0,False,True
mp-23713,CaH2,"Ca, H",2,0.0,Orthorhombic,62,Pnma,3.0275,False,False
mp-680570,Ti5P3,"P, Ti",2,0.015513296770834017,Orthorhombic,62,Pnma,0.0,False,True
mp-672706,Sb2Se3,"Sb, Se",2,0.0950938205000007,Orthorhombic,62,Pnma,0.4902000000000002,True,False
mp-1207837,Tm3Ru,"Ru, Tm",2,0.0,Orthorhombic,62,Pnma,0.0,False,True
mp-1095223,OF2,"F, O",2,0.05304255000000069,Orthorhombic,62,Pnma,2.1241,False,False
mp-1080451,TbPd,"Pd, Tb",2,0.0,Orthorhombic,62,Pnma,0.0,False,True
mp-818,SiRh,"Rh, Si",2,0.0,Orthorhombic,62,Pnma,0.0,False,True
mp-19908,EuF3,"Eu, F",2,0.0,Orthorhombic,62,Pnma,0.0,False,True
mp-19905,Co2Si,"Co, Si",2,0.0,Orthorhombic,62,Pnma,0.0,False,True
mp-30626,DyZn3,"Dy, Zn",2,0.0,Orthorhombic,62,Pnma,0.0,False,True
mp-1146,ThS2,"S, Th",2,0.0,Orthorhombic,62,Pnma,1.0335999999999999,False,False
mp-1106122,Pr3Ni,"Ni, Pr",2,0.0,Orthorhombic,62,Pnma,0.0,False,True
mp-1080073,MnTe,"Mn, Te",2,0.012482291767241804,Orthorhombic,62,Pnma,0.0,True,True
mp-1079574,TePb,"Pb, Te",2,0.05548009875000304,Orthorhombic,62,Pnma,0.8023999999999996,False,False
mp-1190019,LuZn3,"Lu, Zn",2,0.0,Orthorhombic,62,Pnma,0.0,False,True
mp-1204965,Ba7Ge6,"Ba, Ge",2,0.012294160384614727,Orthorhombic,62,Pnma,0.0,False,True
mp-568971,Ag2Se,"Ag, Se",2,0.006764499166667548,Orthorhombic,62,Pnma,0.9678,True,False
mp-1210607,Lu5Bi3,"Bi, Lu",2,0.0,Orthorhombic,62,Pnma,0.0,True,True