material_id,formula,elements,num_elements,energy_above_hull,crystal_system,spacegroup_number,spacegroup_symbol,band_gap,theoretical,is_metal
mp-569851,Ho10Si17,"Ho, Si",2,0.0,Orthorhombic,44,Imm2,0.0,False,True
mp-1225291,Dy2Si3,"Dy, Si",2,0.09053059257142593,Orthorhombic,44,Imm2,0.0,True,True
mp-1223265,La2Ge3,"Ge, La",2,0.060161936749999256,Orthorhombic,44,Imm2,0.0,True,True
mp-1223866,In2Te3,"In, Te",2,0.004663606977779011,Orthorhombic,44,Imm2,0.13649999999999984,True,False
mp-1094427,Mg3Zn,"Mg, Zn",2,0.07672283615000008,Orthorhombic,44,Imm2,0.0,True,True
mp-1104765,LaAl4,"Al, La",2,0.020358377333334232,Orthorhombic,44,Imm2,0.0,False,True
mp-973320,MgIn3,"In, Mg",2,0.01825134555555641,Orthorhombic,44,Imm2,0.0,True,True
mp-998913,KO3,"K, O",2,0.0813923031249999,Orthorhombic,44,Imm2,0.5808,True,False
mp-1001787,LiRh3,"Li, Rh",2,0.0,Orthorhombic,44,Imm2,0.0,False,True
mp-1094202,MgSn3,"Mg, Sn",2,0.08602048937500051,Orthorhombic,44,Imm2,0.0,True,True
mp-1220308,Nd2Si3,"Nd, Si",2,0.034265729000001244,Orthorhombic,44,Imm2,0.0,True,True
mp-1219825,Ni7Ge4,"Ge, Ni",2,0.025831170113635338,Orthorhombic,44,Imm2,0.0,True,True
mp-29184,Cr2P,"Cr, P",2,0.012131757777776642,Orthorhombic,44,Imm2,0.0,False,True
mp-1224995,Fe5Sb4,"Fe, Sb",2,0.03658375777777678,Orthorhombic,44,Imm2,0.0,True,True
mp-1094596,LiMg3,"Li, Mg",2,0.02273901374999987,Orthorhombic,44,Imm2,0.0,True,True
mp-1954,P3N5,"N, P",2,0.0985067231250003,Orthorhombic,44,Imm2,2.6004999999999994,False,False
mp-1223831,In2S3,"In, S",2,0.048607494999998835,Orthorhombic,44,Imm2,0.8170999999999999,True,False
mp-974455,Re3Ru,"Re, Ru",2,0.0,Orthorhombic,44,Imm2,0.0,True,True
mp-569825,Dy10Si17,"Dy, Si",2,0.0,Orthorhombic,44,Imm2,0.0,False,True
mp-1223930,Ho2Si3,"Ho, Si",2,0.09238448485714201,Orthorhombic,44,Imm2,0.0,True,True
mp-1226801,Ce2Si3,"Ce, Si",2,0.07808822250000347,Orthorhombic,44,Imm2,0.0,True,True
mp-22464,NaO3,"Na, O",2,0.08382627531250009,Orthorhombic,44,Imm2,0.6064,False,False
mp-1039411,Ca3Mg,"Ca, Mg",2,0.05187731812499963,Orthorhombic,44,Imm2,0.0,True,True
mp-1228488,Ba2Ge3,"Ba, Ge",2,0.09898546450000101,Orthorhombic,44,Imm2,0.0,True,True
mp-1219840,Pr2Si3,"Pr, Si",2,0.052062912499998504,Orthorhombic,44,Imm2,0.0,True,True
mp-978279,Mg3Cu,"Cu, Mg",2,0.07595346249999935,Orthorhombic,44,Imm2,0.0,True,True
mp-865611,MgRh3,"Mg, Rh",2,0.0,Orthorhombic,44,Imm2,0.0,True,True
mp-1038902,Ce3Mg,"Ce, Mg",2,0.09643067333333377,Orthorhombic,44,Imm2,0.0,True,True
mp-1185968,MgSc3,"Mg, Sc",2,0.04980137749999969,Orthorhombic,44,Imm2,0.0,True,True
mp-1224809,Ga2Se3,"Ga, Se",2,0.006252534999998005,Orthorhombic,44,Imm2,0.5122999999999998,True,False
mp-1225811,Cu2S,"Cu, S",2,0.05582426770833315,Orthorhombic,44,Imm2,0.16049999999999986,True,False
mp-1094660,MgGa3,"Ga, Mg",2,0.059726859687500244,Orthorhombic,44,Imm2,0.0,True,True
mp-1102044,LaCo5,"Co, La",2,0.03289621449275337,Orthorhombic,44,Imm2,0.0,False,True
mp-568793,Ca28Ga11,"Ca, Ga",2,0.0,Orthorhombic,44,Imm2,0.0,False,True
mp-705522,Sr28In11,"In, Sr",2,0.0,Orthorhombic,44,Imm2,0.0,False,True
mp-1224796,Ga2S3,"Ga, S",2,0.003099587000001236,Orthorhombic,44,Imm2,1.3536000000000001,True,False
mp-1217351,ThZn11,"Th, Zn",2,0.0908343812500032,Orthorhombic,47,Pmmm,0.0,True,True
mp-1219045,Sn3Pb,"Pb, Sn",2,0.07752443374999984,Orthorhombic,47,Pmmm,0.0,True,True
mp-1229228,Ba10Si69,"Ba, Si",2,0.08826327193038086,Orthorhombic,47,Pmmm,0.0,True,True
mp-1225716,DyCu7,"Cu, Dy",2,0.048040481250000155,Orthorhombic,47,Pmmm,0.0,True,True
mp-1224497,K15Si92,"K, Si",2,0.05827078497663507,Orthorhombic,47,Pmmm,0.0,True,True
mp-1217092,Ti3Al5,"Al, Ti",2,0.015235836874998299,Orthorhombic,47,Pmmm,0.0,True,True
mp-1205213,SiO2,"O, Si",2,0.07174161092592435,Orthorhombic,47,Pmmm,5.3649,False,False
mp-999545,Mn3Fe,"Fe, Mn",2,0.02130371905172268,Orthorhombic,47,Pmmm,0.0,True,True
mp-557134,SiO2,"O, Si",2,0.09504292055555652,Monoclinic,5,C2,5.4646,True,False
mp-568524,Cu5Sn4,"Cu, Sn",2,0.031874359629625815,Monoclinic,5,C2,0.0,False,True
mp-556553,SiO2,"O, Si",2,0.08570167388888983,Monoclinic,5,C2,4.9023,True,False
mp-1217269,TeSe2,"Se, Te",2,0.0,Monoclinic,5,C2,0.6533000000000002,True,False
mp-1178425,CoF3,"Co, F",2,0.08430329687499949,Monoclinic,5,C2,1.5746,True,False
mp-754451,V5O12,"O, V",2,0.03967858352941178,Monoclinic,5,C2,1.0317,True,False
mp-685164,V25O32,"O, V",2,0.07779083391813124,Monoclinic,5,C2,0.21030000000000015,True,False
mp-715572,Fe2O3,"Fe, O",2,0.07717755074999921,Monoclinic,5,C2,1.3464999999999998,True,False
mp-1173070,Cu9Se5,"Cu, Se",2,0.09200879589285904,Monoclinic,5,C2,0.0,True,True
mp-673174,Fe8N3,"Fe, N",2,0.017508316742423702,Monoclinic,5,C2,0.0,True,True
mp-556662,SiO2,"O, Si",2,0.06785603305555732,Monoclinic,5,C2,5.565300000000001,True,False
mp-684604,CuS2,"Cu, S",2,0.09972548333333364,Monoclinic,5,C2,0.0,True,True
mp-32905,Cu8O7,"Cu, O",2,0.06648700933333274,Monoclinic,5,C2,0.0,True,True
mp-935148,Mg4Zn7,"Mg, Zn",2,0.007840319994651512,Monoclinic,5,C2,0.0,True,True
mp-656097,CaN6,"Ca, N",2,0.07920592142857252,Monoclinic,5,C2,3.2200999999999995,True,False
mp-1271729,Fe3O4,"Fe, O",2,0.061772535357144776,Monoclinic,5,C2,0.12209999999999965,True,False
mp-561320,PbS,"Pb, S",2,0.05847392749999969,Monoclinic,5,C2,1.6721,False,False
mp-1220037,Pr5S9,"Pr, S",2,0.07341640441964259,Monoclinic,5,C2,0.0,True,True
mp-1106111,Ni5Ge3,"Ge, Ni",2,0.0007045387499964306,Monoclinic,5,C2,0.0,False,True
mp-685066,US2,"S, U",2,0.0054226880000030064,Monoclinic,5,C2,0.0,True,True
mp-1080121,KSe3,"K, Se",2,0.005916770019533502,Monoclinic,5,C2,0.0,False,True
mp-1274098,V3O5,"O, V",2,0.03076673453125167,Monoclinic,5,C2,0.2384000000000004,True,False
mp-1094238,MgSn,"Mg, Sn",2,0.0727281987499997,Monoclinic,5,C2,0.0,True,True
mp-632403,CdCl2,"Cd, Cl",2,0.09650611666666542,Monoclinic,5,C2,2.8987,True,False
mp-729507,IrCl3,"Cl, Ir",2,0.029280106249998994,Monoclinic,5,C2,1.6759999999999997,True,False
mp-1218194,Ta2O5,"O, Ta",2,0.04802041928571299,Monoclinic,5,C2,1.3281999999999998,True,False
mp-1178540,CoO2,"Co, O",2,0.02587564958333477,Monoclinic,5,C2,0.0,True,True
mp-1219223,Sn13Pd20,"Pd, Sn",2,0.0049351372727244325,Monoclinic,5,C2,0.0,True,True
mp-1204035,W15I47,"I, W",2,0.008332199260753015,Monoclinic,5,C2,0.07160000000000011,False,False
mp-1235185,LiO8,"Li, O",2,0.00536153111111215,Monoclinic,5,C2,0.0,True,True
mp-1094445,MgZn,"Mg, Zn",2,0.0845683939666666,Monoclinic,5,C2,0.0,True,True
mp-30082,Ni19Ge12,"Ge, Ni",2,0.00015263649193464346,Monoclinic,5,C2,0.0,False,True
mp-1039246,MgCd,"Cd, Mg",2,0.03595106416666627,Monoclinic,5,C2,0.0,True,True
mp-1219006,Sn7Pd5,"Pd, Sn",2,0.04139117625000566,Monoclinic,5,C2,0.0,True,True
mp-1094589,LiMg,"Li, Mg",2,0.024380729166666892,Monoclinic,5,C2,0.0,True,True
mp-849596,Mn21O40,"Mn, O",2,0.057628469911204405,Monoclinic,5,C2,0.0,True,True
mp-1220359,Nd5S9,"Nd, S",2,0.07095966453125158,Monoclinic,5,C2,0.0,True,True
mp-551905,OsO4,"O, Os",2,0.0,Monoclinic,5,C2,3.2472000000000003,False,False
mp-1217676,Tb8Se15,"Se, Tb",2,0.0,Monoclinic,5,C2,0.2515999999999998,True,False
mp-1094661,MgGa,"Ga, Mg",2,0.05908424499999976,Monoclinic,5,C2,0.0,True,True
mp-1179062,Ta2O5,"O, Ta",2,0.09135365357143144,Monoclinic,5,C2,3.3026999999999997,True,False
mp-1039439,CaMg,"Ca, Mg",2,0.09347259791666596,Monoclinic,5,C2,0.0,True,True
mp-772530,V5O12,"O, V",2,0.09751883764706015,Monoclinic,5,C2,1.0074000000000003,True,False
mp-1212122,InCl2,"Cl, In",2,0.0,Orthorhombic,52,Pnna,3.0226,True,False
mp-27398,TlBr2,"Br, Tl",2,0.0,Orthorhombic,52,Pnna,1.7922000000000002,False,False
mp-568108,InBr2,"Br, In",2,0.0,Orthorhombic,52,Pnna,2.4137,False,False
mp-28384,GaBr2,"Br, Ga",2,0.0,Orthorhombic,52,Pnna,3.1033,False,False
mp-560098,SbO2,"O, Sb",2,0.005355817916640859,Orthorhombic,52,Pnna,1.9573,False,False
mp-754658,TeO3,"O, Te",2,0.02112703687499984,Orthorhombic,52,Pnna,1.2489,True,False
mp-31150,Sr2Bi3,"Bi, Sr",2,0.0,Orthorhombic,52,Pnna,0.0,False,True
mp-568848,GaCl2,"Cl, Ga",2,0.0,Orthorhombic,52,Pnna,3.8564000000000003,False,False
mp-29312,InI2,"I, In",2,0.0,Orthorhombic,52,Pnna,1.7863000000000002,False,False
mp-11307,MgCd,"Cd, Mg",2,0.0,Orthorhombic,51,Pmma,0.0,False,True
mp-998949,TiPt,"Pt, Ti",2,0.0,Orthorhombic,51,Pmma,0.0,False,True
mp-16960,AlPt2,"Al, Pt",2,0.0,Orthorhombic,51,Pmma,0.0,False,True
mp-1095683,NbIr,"Ir, Nb",2,0.0053380891666652275,Orthorhombic,51,Pmma,0.0,False,True
mp-11515,NbRh,"Nb, Rh",2,0.02335036749999908,Orthorhombic,51,Pmma,0.0,False,True
mp-505064,Nb2P,"Nb, P",2,0.0,Orthorhombic,51,Pmma,0.0,False,True
mp-1185947,MgSc,"Mg, Sc",2,0.017073239999999767,Orthorhombic,51,Pmma,0.0,True,True
mp-1183308,BaMg,"Ba, Mg",2,0.0,Orthorhombic,51,Pmma,0.0,True,True
mp-1094863,MgGa,"Ga, Mg",2,0.02430008249999993,Orthorhombic,51,Pmma,0.0,True,True
mp-30744,IrW,"Ir, W",2,0.0,Orthorhombic,51,Pmma,0.0,False,True
mp-715923,WO3,"O, W",2,0.007820964062499769,Orthorhombic,51,Pmma,1.1694,True,False
mp-11481,MoIr,"Ir, Mo",2,0.0,Orthorhombic,51,Pmma,0.0,False,True
mp-600038,SiO2,"O, Si",2,0.03660870155555784,Orthorhombic,51,Pmma,5.4989,True,False
mp-1404,CdAu,"Au, Cd",2,0.007815615555557542,Orthorhombic,51,Pmma,0.0,False,True
mp-1184410,EuMg,"Eu, Mg",2,0.023095923124999196,Orthorhombic,51,Pmma,0.0,True,True
mp-980094,TiPd,"Pd, Ti",2,0.012544989999998535,Orthorhombic,51,Pmma,0.0,False,True
mp-765637,V3F10,"F, V",2,0.0927826503846152,Orthorhombic,51,Pmma,0.0,True,True
mp-1094852,CaMg,"Ca, Mg",2,0.023211933749999414,Orthorhombic,51,Pmma,0.0,True,True
mp-1102348,NbRh,"Nb, Rh",2,0.006223215833331963,Orthorhombic,51,Pmma,0.0,False,True
mp-1183575,CaMg,"Ca, Mg",2,0.0012381962499992127,Orthorhombic,51,Pmma,0.0,True,True
mp-978268,MgZn,"Mg, Zn",2,0.033131127299999896,Orthorhombic,51,Pmma,0.0,True,True
mp-999376,NbPt,"Nb, Pt",2,0.0,Orthorhombic,51,Pmma,0.0,False,True
mp-30463,BiPd3,"Bi, Pd",2,0.0,Orthorhombic,51,Pmma,0.0,False,True
mp-1185890,MgIr,"Ir, Mg",2,0.09854947828947402,Orthorhombic,51,Pmma,0.0,True,True
mp-603347,TiNi,"Ni, Ti",2,0.017404175000000244,Orthorhombic,51,Pmma,0.0,True,True
mp-727194,Ta3O8,"O, Ta",2,0.026576212784089392,Orthorhombic,51,Pmma,0.0,False,True
mp-1194572,Co5B16,"B, Co",2,0.029816534722222343,Orthorhombic,51,Pmma,0.0,False,True
mp-510252,Fe3O4,"Fe, O",2,0.07504739107143088,Orthorhombic,51,Pmma,0.24350000000000005,False,False
mp-1094880,SrMg,"Mg, Sr",2,0.04350454749999977,Orthorhombic,51,Pmma,0.0,True,True
mp-600007,SiO2,"O, Si",2,0.020936226111112788,Orthorhombic,51,Pmma,5.6068999999999996,True,False
mp-1094963,CeMg,"Ce, Mg",2,0.030167510833333466,Orthorhombic,51,Pmma,0.0,True,True
mp-1017545,ZrRh,"Rh, Zr",2,0.05088004499999954,Orthorhombic,51,Pmma,0.0,True,True
mp-1094739,LaMg,"La, Mg",2,0.0,Orthorhombic,51,Pmma,0.0,True,True
mp-1094987,MgAl,"Al, Mg",2,0.05468241875000013,Orthorhombic,51,Pmma,0.0,True,True
mp-972916,MgCu,"Cu, Mg",2,0.050557428333333654,Orthorhombic,51,Pmma,0.0,True,True
mp-998985,TiAu,"Au, Ti",2,5.5957499995429316e-05,Orthorhombic,51,Pmma,0.0,False,True
mp-1094675,LiMg,"Li, Mg",2,0.026857360000000163,Orthorhombic,51,Pmma,0.0,True,True
mp-600061,SiO2,"O, Si",2,0.021514937222223196,Orthorhombic,51,Pmma,5.6122,True,False
mp-999502,MoPt,"Mo, Pt",2,0.0,Orthorhombic,51,Pmma,0.0,False,True
mp-1017531,VPt,"Pt, V",2,0.0002815350000009431,Orthorhombic,51,Pmma,0.0,False,True
mp-571499,TaIr,"Ir, Ta",2,0.0,Orthorhombic,51,Pmma,0.0,False,True
mp-2223,GaPt2,"Ga, Pt",2,0.0,Orthorhombic,51,Pmma,0.0,False,True
mp-1185908,MgNi,"Mg, Ni",2,0.04867938326388943,Orthorhombic,51,Pmma,0.0,True,True
mp-639695,SiO2,"O, Si",2,0.02258278388888968,Orthorhombic,51,Pmma,5.7854,True,False
mp-1185370,LiMg,"Li, Mg",2,0.0019510175000001517,Orthorhombic,51,Pmma,0.0,True,True
mp-1104837,Ta2O5,"O, Ta",2,0.04449044642857203,Orthorhombic,51,Pmma,2.0252,True,False
mp-1185891,MgIn,"In, Mg",2,0.009587897777777243,Orthorhombic,51,Pmma,0.0,True,True
mp-12595,MoRh,"Mo, Rh",2,0.0,Orthorhombic,51,Pmma,0.0,False,True
mp-1185937,MgPb,"Mg, Pb",2,0.00866496499999947,Orthorhombic,51,Pmma,0.0,True,True
mp-639463,SiO2,"O, Si",2,0.017680253888890718,Orthorhombic,51,Pmma,5.3927000000000005,True,False
mp-1018055,HfIr,"Hf, Ir",2,0.01909539499999724,Orthorhombic,51,Pmma,0.0,True,True
mp-1205301,Y3H,"H, Y",2,0.018253704999999343,Orthorhombic,51,Pmma,0.0,True,True
mp-1038828,CaZn,"Ca, Zn",2,0.007421187500000093,Orthorhombic,51,Pmma,0.0,True,True
mp-1039188,MgBi,"Bi, Mg",2,0.09433519749999775,Orthorhombic,51,Pmma,0.0,True,True
mp-1094701,YMg,"Mg, Y",2,0.003729230000001138,Orthorhombic,51,Pmma,0.0,True,True
mp-1200152,Nb2As,"As, Nb",2,0.0,Orthorhombic,51,Pmma,0.0,False,True
mp-600050,SiO2,"O, Si",2,0.0644459970833342,Orthorhombic,53,Pmna,5.8144,True,False
mp-716052,Fe3O4,"Fe, O",2,0.0753916742857168,Orthorhombic,53,Pmna,0.02010000000000023,True,False
mp-667373,SiO2,"O, Si",2,0.01103381398809411,Orthorhombic,53,Pmna,5.5745,True,False
mp-1023900,SiS,"S, Si",2,0.08684334124999893,Orthorhombic,53,Pmna,0.4776,True,False
mp-757234,VF4,"F, V",2,0.0,Orthorhombic,53,Pmna,1.7662000000000002,True,False
mp-568121,Mn4Si7,"Mn, Si",2,6.969386363664398e-05,Orthorhombic,54,Pcca,0.670300000000001,True,False
mp-17524,GeAs2,"As, Ge",2,0.0,Orthorhombic,55,Pbam,0.7195999999999998,False,False
mp-764949,MnF3,"F, Mn",2,0.005755607499999371,Orthorhombic,55,Pbam,0.3323999999999998,True,False
mp-752887,VF4,"F, V",2,0.03977966999999971,Orthorhombic,55,Pbam,2.7897,True,False
mp-672287,Li13Si4,"Li, Si",2,0.0,Orthorhombic,55,Pbam,0.0,False,True
mp-30857,Zn12Pt7,"Pt, Zn",2,0.002627841772855799,Orthorhombic,55,Pbam,0.0,False,True
mp-28823,Ba4P3,"Ba, P",2,0.0,Orthorhombic,55,Pbam,0.7464,False,False
mp-978553,SiAs2,"As, Si",2,0.0,Orthorhombic,55,Pbam,0.8890999999999996,False,False
mp-505535,B8Ru11,"B, Ru",2,0.09158099543859777,Orthorhombic,55,Pbam,0.0,False,True
mp-29424,Sr4As3,"As, Sr",2,0.0,Orthorhombic,55,Pbam,0.5853000000000002,False,False
mp-759343,MnF4,"F, Mn",2,0.09442332000000064,Orthorhombic,55,Pbam,0.5459999999999998,True,False
mp-17413,Ti3Rh5,"Rh, Ti",2,0.0,Orthorhombic,55,Pbam,0.0,False,True
mp-15237,Tb4C5,"C, Tb",2,0.0,Orthorhombic,55,Pbam,0.0,False,True
mp-30499,Th6Cd7,"Cd, Th",2,0.0054036184615355864,Orthorhombic,55,Pbam,0.0,False,True
mp-567539,MgGa2,"Ga, Mg",2,0.01660142124999986,Orthorhombic,55,Pbam,0.0,False,True
mp-8360,RbTe,"Rb, Te",2,0.0,Orthorhombic,55,Pbam,0.8245999999999998,False,False
mp-647814,U2O5,"O, U",2,0.019396734464292464,Orthorhombic,55,Pbam,0.0,True,True
mp-30334,Th2Al7,"Al, Th",2,0.021998454999994976,Orthorhombic,55,Pbam,0.0,False,True
mp-1212812,Dy4C5,"C, Dy",2,0.0,Orthorhombic,55,Pbam,0.0,True,True
mp-1194531,Fe2B7,"B, Fe",2,0.007321044166666901,Orthorhombic,55,Pbam,0.0,False,True
mp-9459,Y4C5,"C, Y",2,0.0,Orthorhombic,55,Pbam,0.0,False,True
mp-16523,Al3Pd5,"Al, Pd",2,0.0,Orthorhombic,55,Pbam,0.0,False,True
mp-680646,NiSn,"Ni, Sn",2,0.00790212258928591,Orthorhombic,55,Pbam,0.0,False,True
mp-560362,W8O21,"O, W",2,0.007278122198274062,Orthorhombic,55,Pbam,0.0,False,True
mp-1410508,V2O5,"O, V",2,0.05595671285714232,Orthorhombic,55,Pbam,1.4391,True,False
mp-636813,Pb3O4,"O, Pb",2,0.032631488928572594,Orthorhombic,55,Pbam,0.9925999999999995,False,False
mp-27930,Li7Si2,"Li, Si",2,0.028336932916666502,Orthorhombic,55,Pbam,0.0,False,True
mp-1210703,Mg3Pd5,"Mg, Pd",2,0.0,Orthorhombic,55,Pbam,0.0,True,True
mp-22146,In3Pd5,"In, Pd",2,0.0,Orthorhombic,55,Pbam,0.0,False,True
mp-1501,Al3Pt5,"Al, Pt",2,0.0,Orthorhombic,55,Pbam,0.0,False,True
mp-15238,Ho4C5,"C, Ho",2,0.0,Orthorhombic,55,Pbam,0.0,False,True
mp-17045,Hf3Rh5,"Hf, Rh",2,0.0,Orthorhombic,55,Pbam,0.0,False,True
mp-555619,W3O8,"O, W",2,0.07196200954545517,Orthorhombic,55,Pbam,0.0,False,True
mp-638005,SeO2,"O, Se",2,0.0015618591666655135,Orthorhombic,55,Pbam,3.2704,False,False
mp-21012,Si3Rh5,"Rh, Si",2,0.04372154125000094,Orthorhombic,55,Pbam,0.0,False,True
mp-1194887,Ca4As3,"As, Ca",2,0.0,Orthorhombic,55,Pbam,0.6617000000000002,False,False
mp-8361,CsTe,"Cs, Te",2,0.0,Orthorhombic,55,Pbam,1.0019,False,False
mp-2408,Ga3Pd5,"Ga, Pd",2,0.012720833437501966,Orthorhombic,55,Pbam,0.0,False,True
mp-9996,SiP2,"P, Si",2,0.0,Orthorhombic,55,Pbam,1.4262000000000001,False,False
mp-619905,Ti9Se2,"Se, Ti",2,0.008688950795454176,Orthorhombic,55,Pbam,0.0,False,True
mp-624221,Ge3Rh5,"Ge, Rh",2,0.0172787806250021,Orthorhombic,55,Pbam,0.0,False,True
mp-1105935,Si3Ru5,"Ru, Si",2,0.037526324999998195,Orthorhombic,55,Pbam,0.0,False,True
mp-21452,Pb3O4,"O, Pb",2,0.0001734625000011647,Orthorhombic,55,Pbam,1.1604,False,False
mp-1405465,Ta2O5,"O, Ta",2,0.0774960821428543,Orthorhombic,55,Pbam,2.8117,True,False
mp-23226,Nb6I11,"I, Nb",2,0.012391321838237879,Orthorhombic,56,Pccn,0.0,False,True
mp-556549,Bi2O3,"Bi, O",2,0.016509779500001542,Orthorhombic,56,Pccn,2.2769999999999997,False,False
mp-29654,B9H11,"B, H",2,0.0,Orthorhombic,56,Pccn,2.9118,False,False
mp-2136,Sb2O3,"O, Sb",2,0.0,Orthorhombic,56,Pccn,2.2239000000000004,False,False
mp-1106211,As2O3,"As, O",2,0.07286496649999918,Orthorhombic,56,Pccn,3.0503,True,False
mp-557465,SiO2,"O, Si",2,0.013800840138889825,Orthorhombic,56,Pccn,5.522,True,False
mp-672222,Ta2As,"As, Ta",2,0.011061889603176667,Orthorhombic,58,Pnnm,0.0,False,True
mp-647729,Zr14P9,"P, Zr",2,0.0,Orthorhombic,58,Pnnm,0.0,False,True
mp-1078253,MnB4,"B, Mn",2,0.0,Orthorhombic,58,Pnnm,0.0,False,True
mp-267,Te2Ru,"Ru, Te",2,0.0,Orthorhombic,58,Pnnm,0.28470000000000084,False,False
mp-19895,NiSb2,"Ni, Sb",2,0.0,Orthorhombic,58,Pnnm,0.0,False,True
mp-540671,Ti7Cl16,"Cl, Ti",2,0.0,Orthorhombic,58,Pnnm,0.0,False,True
mp-1413,P2Ru,"P, Ru",2,0.0,Orthorhombic,58,Pnnm,0.4791999999999996,False,False
mp-1285,PtO2,"O, Pt",2,0.0,Orthorhombic,58,Pnnm,0.6463999999999999,False,False
mp-754064,MnP2,"Mn, P",2,0.04187207703703777,Orthorhombic,58,Pnnm,0.0,True,True
mp-9835,CoSb2,"Co, Sb",2,0.04056995777777672,Orthorhombic,58,Pnnm,0.0,False,True
mp-569008,PdCl2,"Cl, Pd",2,0.03231388833333426,Orthorhombic,58,Pnnm,0.9227000000000001,False,False
mp-1199529,Hf2As,"As, Hf",2,0.0,Orthorhombic,58,Pnnm,0.0,False,True
mp-755060,Cs2O,"Cs, O",2,0.05833121000000219,Orthorhombic,58,Pnnm,0.26819999999999977,True,False
mp-766,As2Ru,"As, Ru",2,0.0,Orthorhombic,58,Pnnm,0.44920000000000027,False,False
mp-30550,AlAu2,"Al, Au",2,0.0036153728333303548,Orthorhombic,58,Pnnm,0.0,False,True
mp-1203256,Zr14As9,"As, Zr",2,0.0,Orthorhombic,58,Pnnm,0.0,False,True
mp-604647,TiAs2,"As, Ti",2,0.011234058750000386,Orthorhombic,58,Pnnm,0.0,False,True
mp-20928,Sb2Ru,"Ru, Sb",2,0.0,Orthorhombic,58,Pnnm,0.0034999999999989484,False,False
mp-33065,W2C,"C, W",2,0.0707689066666699,Orthorhombic,58,Pnnm,0.0,True,True
mp-979,ZrSb2,"Sb, Zr",2,0.0,Orthorhombic,58,Pnnm,0.0,False,True
mp-33009,MnO2,"Mn, O",2,0.006882928888888529,Orthorhombic,58,Pnnm,0.0,False,True
mp-2000,CuSe2,"Cu, Se",2,0.0,Orthorhombic,58,Pnnm,0.0,False,True
mp-570130,AlH3,"Al, H",2,0.014584145416667305,Orthorhombic,58,Pnnm,3.1862000000000004,False,False
mp-998915,K2O,"K, O",2,0.029554350000000174,Orthorhombic,58,Pnnm,0.6523000000000001,True,False
mp-1247899,Al2O3,"Al, O",2,0.09592554299999989,Orthorhombic,58,Pnnm,3.5091,True,False
mp-600026,SiO2,"O, Si",2,0.05490552750000077,Orthorhombic,58,Pnnm,5.1530000000000005,True,False
mp-755072,Na2O,"Na, O",2,0.07014185166666653,Orthorhombic,58,Pnnm,1.0343,True,False
mp-1018804,MnS2,"Mn, S",2,0.03314314833333398,Orthorhombic,58,Pnnm,0.0,False,True
mp-849059,NiS2,"Ni, S",2,0.021258213333333664,Orthorhombic,58,Pnnm,0.0,True,True
mp-19932,In4Se3,"In, Se",2,0.01905474571428556,Orthorhombic,58,Pnnm,0.1504000000000003,False,False
mp-556324,NiF2,"F, Ni",2,0.0007630533333333744,Orthorhombic,58,Pnnm,0.0,False,True
mp-20714,FeSb2,"Fe, Sb",2,0.0,Orthorhombic,58,Pnnm,0.0,False,True
mp-1071078,NiSe2,"Ni, Se",2,0.06142420166666618,Orthorhombic,58,Pnnm,0.0,False,True
mp-582968,Bi6Cl7,"Bi, Cl",2,0.0,Orthorhombic,58,Pnnm,1.6159999999999997,False,False
mp-540672,Ti7Br16,"Br, Ti",2,0.00914951956521648,Orthorhombic,58,Pnnm,0.0,False,True
mp-617281,In4Te3,"In, Te",2,0.0,Orthorhombic,58,Pnnm,0.12239999999999984,False,False
mp-1079437,FeB4,"B, Fe",2,0.00684514683333326,Orthorhombic,58,Pnnm,0.0,False,True
mp-21395,CrO2,"Cr, O",2,0.0007607049999673876,Orthorhombic,58,Pnnm,0.0,False,True