material_id,formula,elements,num_elements,energy_above_hull,crystal_system,spacegroup_number,spacegroup_symbol,band_gap,theoretical,is_metal
mp-797,DyPd3,"Dy, Pd",2,0.0,Cubic,221,Pm-3m,0.0,False,True
mp-1837,TbCu,"Cu, Tb",2,0.0,Cubic,221,Pm-3m,0.0,False,True
mp-20849,Pd3Pb,"Pb, Pd",2,0.0,Cubic,221,Pm-3m,0.0,False,True
mp-2861,CaTl,"Ca, Tl",2,0.0,Cubic,221,Pm-3m,0.0,False,True
mp-1206376,MnAu3,"Au, Mn",2,0.08613502625000535,Cubic,221,Pm-3m,0.0,True,True
mp-1185044,LaPr3,"La, Pr",2,0.03208286250000114,Cubic,221,Pm-3m,0.0,True,True
mp-1408,MgHg,"Hg, Mg",2,0.0,Cubic,221,Pm-3m,0.0,False,True
mp-2607,UGe3,"Ge, U",2,0.0,Cubic,221,Pm-3m,0.0,False,True
mp-19870,GaFe3,"Fe, Ga",2,0.0,Cubic,221,Pm-3m,0.0,False,True
mp-21427,GdPd3,"Gd, Pd",2,0.0,Cubic,221,Pm-3m,0.0,False,True
mp-867164,Pm3Sn,"Pm, Sn",2,0.0,Cubic,221,Pm-3m,0.0,True,True
mp-11495,LuRu,"Lu, Ru",2,0.0,Cubic,221,Pm-3m,0.0,False,True
mp-1073,CaCd,"Ca, Cd",2,0.0,Cubic,221,Pm-3m,0.0,False,True
mp-191,YRh,"Rh, Y",2,0.0,Cubic,221,Pm-3m,0.0,False,True
mp-1971,HoCu,"Cu, Ho",2,0.0,Cubic,221,Pm-3m,0.0,False,True
mp-22320,GaRu,"Ga, Ru",2,0.0005310187499993901,Cubic,221,Pm-3m,0.0,False,True
mp-1184154,Er3Hg,"Er, Hg",2,0.09419647749999882,Cubic,221,Pm-3m,0.0,True,True
mp-21343,CeB6,"B, Ce",2,0.0,Cubic,221,Pm-3m,0.0,False,True
mp-12067,MnAl,"Al, Mn",2,0.04769594000000055,Cubic,221,Pm-3m,0.0,False,True
mp-21483,Nd3In,"In, Nd",2,0.0,Cubic,221,Pm-3m,0.0,False,True
mp-460,PrZn,"Pr, Zn",2,0.0,Cubic,221,Pm-3m,0.0,False,True
mp-6938,ZnRh,"Rh, Zn",2,0.0,Cubic,221,Pm-3m,0.0,False,True
mp-975639,Pr3Er,"Er, Pr",2,0.04252040541666702,Cubic,221,Pm-3m,0.0,True,True
mp-2442,ErAu,"Au, Er",2,0.03248330499999952,Cubic,221,Pm-3m,0.0,False,True
mp-1756,ThB6,"B, Th",2,0.0,Cubic,221,Pm-3m,0.0,False,True
mp-1184100,Dy3Er,"Dy, Er",2,0.04910833291666705,Cubic,221,Pm-3m,0.0,True,True
mp-635426,GdAu,"Au, Gd",2,0.0,Cubic,221,Pm-3m,0.0,False,True
mp-2615,LaZn,"La, Zn",2,0.0,Cubic,221,Pm-3m,0.0,False,True
mp-12798,Ni3Pt,"Ni, Pt",2,0.0,Cubic,221,Pm-3m,0.0,False,True
mp-20291,YPb3,"Pb, Y",2,0.015527627499999141,Cubic,221,Pm-3m,0.0,False,True
mp-1635,TbMg,"Mg, Tb",2,0.0,Cubic,221,Pm-3m,0.0,False,True
mp-1418,FeNi3,"Fe, Ni",2,0.0,Cubic,221,Pm-3m,0.0,False,True
mp-2540,VTc,"Tc, V",2,0.0,Cubic,221,Pm-3m,0.0,False,True
mp-10694,ScF3,"F, Sc",2,0.00025103375000057326,Cubic,221,Pm-3m,6.097799999999999,False,False
mp-12586,SmCu,"Cu, Sm",2,0.03134815625000087,Cubic,221,Pm-3m,0.0,False,True
mp-1184093,DyTh3,"Dy, Th",2,0.04724287625000301,Cubic,221,Pm-3m,0.0,True,True
mp-2756,CeAg,"Ag, Ce",2,0.08731731875000026,Cubic,221,Pm-3m,0.0,False,True
mp-1021668,In3Sb,"In, Sb",2,0.09499727750000275,Cubic,221,Pm-3m,0.0,True,True
mp-1187291,Tb3Lu,"Lu, Tb",2,0.04053715583333428,Cubic,221,Pm-3m,0.0,True,True
mp-1886,TbTl3,"Tb, Tl",2,0.0,Cubic,221,Pm-3m,0.0,False,True
mp-636279,EuPd3,"Eu, Pd",2,0.017754212500001643,Cubic,221,Pm-3m,0.0,False,True
mp-1183704,CoRh3,"Co, Rh",2,0.06548379374999769,Cubic,221,Pm-3m,0.0,True,True
mp-2303,DyZn,"Dy, Zn",2,0.0,Cubic,221,Pm-3m,0.0,False,True
mp-11569,SmTl3,"Sm, Tl",2,0.0,Cubic,221,Pm-3m,0.0,False,True
mp-580329,Pu3Sn,"Pu, Sn",2,0.0,Cubic,221,Pm-3m,0.0,True,True
mp-376,PrSn3,"Pr, Sn",2,0.0,Cubic,221,Pm-3m,0.0,False,True
mp-20438,PuTe,"Pu, Te",2,0.07750081000000009,Cubic,221,Pm-3m,0.0,False,True
mp-22906,CsBr,"Br, Cs",2,0.0,Cubic,221,Pm-3m,4.2392,False,False
mp-1185539,CeGd3,"Ce, Gd",2,0.07865154875000258,Cubic,221,Pm-3m,0.0,True,True
mp-437,MgAu,"Au, Mg",2,0.0,Cubic,221,Pm-3m,0.0,False,True
mp-974395,Pt3Rh,"Pt, Rh",2,0.01815076499999435,Cubic,221,Pm-3m,0.0,True,True
mp-640089,CeCd11,"Cd, Ce",2,0.0,Cubic,221,Pm-3m,0.0,False,True
mp-2509,ThRh3,"Rh, Th",2,0.0,Cubic,221,Pm-3m,0.0,False,True
mp-867816,TaRu3,"Ru, Ta",2,0.0,Cubic,221,Pm-3m,0.0,True,True
mp-1186275,Nd3Lu,"Lu, Nd",2,0.02912565625000596,Cubic,221,Pm-3m,0.0,True,True
mp-1201591,LaCd11,"Cd, La",2,0.0,Cubic,221,Pm-3m,0.0,False,True
mp-447,TmAu,"Au, Tm",2,0.027464062500001774,Cubic,221,Pm-3m,0.0,False,True
mp-1158,LuPd3,"Lu, Pd",2,0.0,Cubic,221,Pm-3m,0.0,False,True
mp-982,TmPd3,"Pd, Tm",2,0.0,Cubic,221,Pm-3m,0.0,False,True
mp-1187154,SrIn3,"In, Sr",2,0.05257754300000039,Cubic,221,Pm-3m,0.0,True,True
mp-1929,NdB6,"B, Nd",2,0.0,Cubic,221,Pm-3m,0.0,False,True
mp-861936,LiPd3,"Li, Pd",2,0.0,Cubic,221,Pm-3m,0.0,True,True
mp-1183391,BaPb3,"Ba, Pb",2,0.031871516666664323,Cubic,221,Pm-3m,0.0,True,True
mp-978514,SmTm3,"Sm, Tm",2,0.04977068499999149,Cubic,221,Pm-3m,0.0,True,True
mp-1183755,CeNd3,"Ce, Nd",2,0.08293362562500306,Cubic,221,Pm-3m,0.0,True,True
mp-580236,EuCd,"Cd, Eu",2,0.0,Cubic,221,Pm-3m,0.0,False,True
mp-2796,TmAg,"Ag, Tm",2,0.0,Cubic,221,Pm-3m,0.0,False,True
mp-1007974,CrNi3,"Cr, Ni",2,0.007950109999999455,Cubic,221,Pm-3m,0.0,True,True
mp-864655,PaCo3,"Co, Pa",2,0.0,Cubic,221,Pm-3m,0.0,True,True
mp-20236,DyIn3,"Dy, In",2,0.0,Cubic,221,Pm-3m,0.0,False,True
mp-229,ZrRh3,"Rh, Zr",2,0.0,Cubic,221,Pm-3m,0.0,False,True
mp-973834,PdAu3,"Au, Pd",2,0.004613015000003884,Cubic,221,Pm-3m,0.0,True,True
mp-1187567,TmRh3,"Rh, Tm",2,0.010743958750000893,Cubic,221,Pm-3m,0.0,True,True
mp-23201,BaBi3,"Ba, Bi",2,0.0,Cubic,221,Pm-3m,0.0,False,True
mp-23197,TlI,"I, Tl",2,0.020759689999998443,Cubic,221,Pm-3m,1.8107999999999995,False,False
mp-915,YCd,"Cd, Y",2,0.0,Cubic,221,Pm-3m,0.0,False,True
mp-20555,NaPb3,"Na, Pb",2,0.0,Cubic,221,Pm-3m,0.0,False,True
mp-30858,ZrPt3,"Pt, Zr",2,0.016842564374996982,Cubic,221,Pm-3m,0.0,False,True
mp-11473,TlHg,"Hg, Tl",2,0.01484476833332593,Cubic,221,Pm-3m,0.0,False,True
mp-1183655,CdPd3,"Cd, Pd",2,0.02570959750000057,Cubic,221,Pm-3m,0.0,True,True
mp-2012,LiHg,"Hg, Li",2,0.0,Cubic,221,Pm-3m,0.0,False,True
mp-1094779,MgZn,"Mg, Zn",2,0.04320482229999989,Cubic,221,Pm-3m,0.0,True,True
mp-21202,Sm3In,"In, Sm",2,0.0,Cubic,221,Pm-3m,0.0,False,True
mp-11516,NbRu,"Nb, Ru",2,0.024435130000000527,Cubic,221,Pm-3m,0.0,False,True
mp-2564,SrMg,"Mg, Sr",2,0.016734022499999668,Cubic,221,Pm-3m,0.0,False,True
mp-11501,MnNi3,"Mn, Ni",2,0.0,Cubic,221,Pm-3m,0.0,False,True
mp-978949,Sm3Ho,"Ho, Sm",2,0.03589136125000181,Cubic,221,Pm-3m,0.0,True,True
mp-2713,ErIr,"Er, Ir",2,0.0,Cubic,221,Pm-3m,0.0,False,True
mp-580357,Cu3Pd,"Cu, Pd",2,0.004421831071429239,Cubic,221,Pm-3m,0.0,False,True
mp-1549,TbPt3,"Pt, Tb",2,0.0,Cubic,221,Pm-3m,0.0,False,True
mp-1186705,Pr3Dy,"Dy, Pr",2,0.03946393749999899,Cubic,221,Pm-3m,0.0,True,True
mp-867883,La3Pb,"La, Pb",2,0.0,Cubic,221,Pm-3m,0.0,True,True
mp-718,SnPd3,"Pd, Sn",2,0.0,Cubic,221,Pm-3m,0.0,False,True
mp-570637,U3Si,"Si, U",2,0.03222136874999393,Cubic,221,Pm-3m,0.0,False,True
mp-19820,TmPb3,"Pb, Tm",2,0.0,Cubic,221,Pm-3m,0.0,False,True
mp-2743,LiPd,"Li, Pd",2,0.021507794999999774,Cubic,221,Pm-3m,0.0,False,True
mp-11474,TlHg3,"Hg, Tl",2,0.0,Cubic,221,Pm-3m,0.0,False,True
mp-2316,TmZn,"Tm, Zn",2,0.0,Cubic,221,Pm-3m,0.0,False,True
mp-2258,Cu3Au,"Au, Cu",2,0.0,Cubic,221,Pm-3m,0.0,False,True
mp-11561,TbRh,"Rh, Tb",2,0.0,Cubic,221,Pm-3m,0.0,False,True
mp-1009133,MnCo,"Co, Mn",2,0.0,Cubic,221,Pm-3m,0.0,True,True
mp-1184844,K3Na,"K, Na",2,0.02311581218750014,Cubic,221,Pm-3m,0.0,True,True
mp-22461,Fe3Sn,"Fe, Sn",2,0.08591179999999898,Cubic,221,Pm-3m,0.0,False,True
mp-1184401,Gd3Ga,"Ga, Gd",2,0.03967728374999879,Cubic,221,Pm-3m,0.0,True,True
mp-865,CaB6,"B, Ca",2,0.0,Cubic,221,Pm-3m,0.0,False,True
mp-2334,DyCu,"Cu, Dy",2,0.0,Cubic,221,Pm-3m,0.0,False,True
mp-1185438,Lu3Hg,"Hg, Lu",2,0.08639078000000211,Cubic,221,Pm-3m,0.0,True,True
mp-30878,TbTl,"Tb, Tl",2,0.0,Cubic,221,Pm-3m,0.0,False,True
mp-217,ErTl,"Er, Tl",2,0.008755929999999967,Cubic,221,Pm-3m,0.0,False,True
mp-30479,Ca3Pb,"Ca, Pb",2,0.0422716649999999,Cubic,221,Pm-3m,0.0,False,True
mp-375,UO3,"O, U",2,0.0,Cubic,221,Pm-3m,1.6349999999999998,False,False
mp-828,SiNi3,"Ni, Si",2,0.0,Cubic,221,Pm-3m,0.0,False,True
mp-881,NpSn3,"Np, Sn",2,0.0,Cubic,221,Pm-3m,0.0,False,True
mp-19919,GdSn3,"Gd, Sn",2,0.038406336249998674,Cubic,221,Pm-3m,0.0,False,True
mp-1184008,Cu3As,"As, Cu",2,0.04545219187500038,Cubic,221,Pm-3m,0.0,True,True
mp-570428,Sc3In,"In, Sc",2,0.01799844249999971,Cubic,221,Pm-3m,0.0,False,True
mp-571,TiNi,"Ni, Ti",2,0.048494374999999756,Cubic,221,Pm-3m,0.0,False,True
mp-213,CaPd,"Ca, Pd",2,0.006872011666665401,Cubic,221,Pm-3m,0.0,False,True
mp-981546,PrHo3,"Ho, Pr",2,0.052546088333333074,Cubic,221,Pm-3m,0.0,True,True
mp-1201245,PrCd11,"Cd, Pr",2,0.0,Cubic,221,Pm-3m,0.0,False,True
mp-974066,Nd3Sm,"Nd, Sm",2,0.024900389375002163,Cubic,221,Pm-3m,0.0,True,True
mp-1186734,Pr3Y,"Pr, Y",2,0.045268601250000984,Cubic,221,Pm-3m,0.0,True,True
mp-817,TmTl3,"Tl, Tm",2,0.0,Cubic,221,Pm-3m,0.0,False,True
mp-1183805,Dy3Zr,"Dy, Zr",2,0.09307285250000064,Cubic,221,Pm-3m,0.0,True,True
mp-1186016,Mo3Pt,"Mo, Pt",2,0.07392594750000114,Cubic,221,Pm-3m,0.0,True,True
mp-1016227,LaMg3,"La, Mg",2,0.08744179249999995,Cubic,221,Pm-3m,0.0,True,True
mp-1188029,Zr3Cd,"Cd, Zr",2,0.019827343749998505,Cubic,221,Pm-3m,0.0,True,True
mp-2805,LuAl3,"Al, Lu",2,0.0,Cubic,221,Pm-3m,0.0,False,True
mp-1187053,Sm3Eu,"Eu, Sm",2,0.06726573625000043,Cubic,221,Pm-3m,0.0,True,True
mp-1183788,DyHo3,"Dy, Ho",2,0.05532534499999997,Cubic,221,Pm-3m,0.0,True,True
mp-601833,Fe13Ge3,"Fe, Ge",2,0.03890681562500031,Cubic,221,Pm-3m,0.0,False,True
mp-1184469,Gd3Y,"Gd, Y",2,0.07138320499999651,Cubic,221,Pm-3m,0.0,True,True
mp-633,LaSn3,"La, Sn",2,0.0,Cubic,221,Pm-3m,0.0,False,True
mp-2688,HoGa3,"Ga, Ho",2,0.030720793749999586,Cubic,221,Pm-3m,0.0,False,True
mp-1025156,NpB6,"B, Np",2,0.010547701785721841,Cubic,221,Pm-3m,0.0,False,True
mp-1327,NdMg,"Mg, Nd",2,0.0,Cubic,221,Pm-3m,0.0,False,True
mp-973556,LuTh3,"Lu, Th",2,0.039404945833339866,Cubic,221,Pm-3m,0.0,True,True
mp-639675,EuCu,"Cu, Eu",2,0.07170486125000153,Cubic,221,Pm-3m,0.0,False,True
mp-932,ScGa3,"Ga, Sc",2,0.0,Cubic,221,Pm-3m,0.0,False,True
mp-636328,TiPd3,"Pd, Ti",2,0.0048098193749979146,Cubic,221,Pm-3m,0.0,False,True
mp-357,SmPd3,"Pd, Sm",2,0.0,Cubic,221,Pm-3m,0.0,False,True
mp-1185312,LiCu3,"Cu, Li",2,0.006164229999999549,Cubic,221,Pm-3m,0.0,True,True
mp-978507,SmTh3,"Sm, Th",2,0.056628410000008955,Cubic,221,Pm-3m,0.0,True,True
mp-1186727,Pr3Sm,"Pr, Sm",2,0.03475884375000149,Cubic,221,Pm-3m,0.0,True,True
mp-21197,NdIn3,"In, Nd",2,0.0,Cubic,221,Pm-3m,0.0,False,True
mp-20309,EuPb3,"Eu, Pb",2,0.0,Cubic,221,Pm-3m,0.0,False,True
mp-30475,CaHg11,"Ca, Hg",2,0.08831153194444852,Cubic,221,Pm-3m,0.0,False,True
mp-21412,Ce3Tl,"Ce, Tl",2,0.0,Cubic,221,Pm-3m,0.0,False,True
mp-526,CaTl3,"Ca, Tl",2,0.0,Cubic,221,Pm-3m,0.0,False,True
mp-693,Pr3Tl,"Pr, Tl",2,0.013996960277779635,Cubic,221,Pm-3m,0.0,False,True
mp-23167,TlCl,"Cl, Tl",2,0.0013070874999989712,Cubic,221,Pm-3m,2.1732,False,False
mp-569382,Nd3Ga,"Ga, Nd",2,0.06591454296875199,Cubic,221,Pm-3m,0.0,False,True
mp-554201,MoF3,"F, Mo",2,0.05094273125000015,Cubic,221,Pm-3m,2.9582,False,False
mp-978964,Th3Mg,"Mg, Th",2,0.07393113875000346,Cubic,221,Pm-3m,0.0,True,True
mp-776,LaCd,"Cd, La",2,0.0,Cubic,221,Pm-3m,0.0,False,True
mp-1152,TiRh3,"Rh, Ti",2,0.0,Cubic,221,Pm-3m,0.0,False,True
mp-1019052,ReN,"N, Re",2,0.05073148874999944,Cubic,221,Pm-3m,0.0,True,True
mp-257,DyIn,"Dy, In",2,0.0,Cubic,221,Pm-3m,0.0,False,True
mp-1184059,Dy3Hg,"Dy, Hg",2,0.09234721749999864,Cubic,221,Pm-3m,0.0,True,True
mp-11274,BePd,"Be, Pd",2,0.0,Cubic,221,Pm-3m,0.0,False,True
mp-867,ErCd,"Cd, Er",2,0.0,Cubic,221,Pm-3m,0.0,False,True
mp-22865,CsCl,"Cl, Cs",2,0.0,Cubic,221,Pm-3m,4.9883999999999995,False,False
mp-863027,LiIn3,"In, Li",2,0.0,Cubic,221,Pm-3m,0.0,True,True
mp-976138,PrDy3,"Dy, Pr",2,0.046117740833338416,Cubic,221,Pm-3m,0.0,True,True
mp-11248,LiAu3,"Au, Li",2,0.0,Cubic,221,Pm-3m,0.0,False,True
mp-20549,CaPb3,"Ca, Pb",2,0.0,Cubic,221,Pm-3m,0.0,False,True
mp-2747,TbPd3,"Pd, Tb",2,0.0,Cubic,221,Pm-3m,0.0,False,True
mp-1183623,CdCu3,"Cd, Cu",2,0.0800766399999997,Cubic,221,Pm-3m,0.0,True,True
mp-1174,MgSc,"Mg, Sc",2,0.0,Cubic,221,Pm-3m,0.0,False,True
mp-982880,Pm3Y,"Pm, Y",2,0.04244225687499892,Cubic,221,Pm-3m,0.0,True,True
mp-2680,LaB6,"B, La",2,0.0,Cubic,221,Pm-3m,0.0,False,True
mp-570276,ZrZn,"Zn, Zr",2,0.0,Cubic,221,Pm-3m,0.0,False,True
mp-1006246,CeSm3,"Ce, Sm",2,0.07793078250000107,Cubic,221,Pm-3m,0.0,True,True
mp-1187390,TbTh3,"Tb, Th",2,0.047040870000003565,Cubic,221,Pm-3m,0.0,True,True
mp-978282,Mg3Hg,"Hg, Mg",2,0.017491376249999746,Cubic,221,Pm-3m,0.0,True,True
mp-20131,YIn3,"In, Y",2,0.0,Cubic,221,Pm-3m,0.0,False,True
mp-1187314,Tb3Y,"Tb, Y",2,0.05221867250000045,Cubic,221,Pm-3m,0.0,True,True
mp-570018,Ce3Pb,"Ce, Pb",2,0.0,Cubic,221,Pm-3m,0.0,False,True
mp-1211,ScCd,"Cd, Sc",2,0.0,Cubic,221,Pm-3m,0.0,False,True
mp-1206794,LiAu,"Au, Li",2,0.0,Cubic,221,Pm-3m,0.0,True,True
mp-21482,NpIn3,"In, Np",2,0.006129355312502582,Cubic,221,Pm-3m,0.0,False,True
mp-1660,ErZn,"Er, Zn",2,0.0,Cubic,221,Pm-3m,0.0,False,True
mp-2323,BeCu,"Be, Cu",2,0.005036342500000401,Cubic,221,Pm-3m,0.0,False,True
mp-815,GaNi3,"Ga, Ni",2,0.0,Cubic,221,Pm-3m,0.0,False,True
mp-862954,PmPd3,"Pd, Pm",2,0.0,Cubic,221,Pm-3m,0.0,True,True
mp-1187219,Ta3Pt,"Pt, Ta",2,0.05295984541666243,Cubic,221,Pm-3m,0.0,True,True
mp-569785,TlPd3,"Pd, Tl",2,0.03574012374999924,Cubic,221,Pm-3m,0.0,True,True
mp-866286,AcMg,"Ac, Mg",2,0.0,Cubic,221,Pm-3m,0.0,True,True
mp-1184771,Ir3Rh,"Ir, Rh",2,0.006866324999997175,Cubic,221,Pm-3m,0.0,True,True
mp-2621,ErAg,"Ag, Er",2,0.0,Cubic,221,Pm-3m,0.0,False,True
mp-1184431,Gd3Dy,"Dy, Gd",2,0.07980226749999986,Cubic,221,Pm-3m,0.0,True,True
mp-20503,GdTl3,"Gd, Tl",2,0.0,Cubic,221,Pm-3m,0.0,False,True
mp-1187257,TaZn3,"Ta, Zn",2,0.016571697812498343,Cubic,221,Pm-3m,0.0,True,True
mp-19920,Ce3Ga,"Ce, Ga",2,0.0,Cubic,221,Pm-3m,0.0,False,True
mp-30845,SmPt3,"Pt, Sm",2,0.0,Cubic,221,Pm-3m,0.0,False,True
mp-1603,TmGa3,"Ga, Tm",2,0.010813862499997384,Cubic,221,Pm-3m,0.0,False,True
mp-973342,SbRh3,"Rh, Sb",2,0.005245416250001966,Cubic,221,Pm-3m,0.0,True,True
mp-734,LaHg,"Hg, La",2,0.0,Cubic,221,Pm-3m,0.0,False,True
mp-527,BaCd,"Ba, Cd",2,0.0,Cubic,221,Pm-3m,0.0,False,True
mp-21484,PuGe3,"Ge, Pu",2,0.0,Cubic,221,Pm-3m,0.0,False,True
mp-1187285,Tb3Ho,"Ho, Tb",2,0.04589434500000067,Cubic,221,Pm-3m,0.0,True,True
mp-1184417,Gd3Al,"Al, Gd",2,0.0,Cubic,221,Pm-3m,0.0,True,True
mp-1185543,CsK3,"Cs, K",2,0.016812658750000153,Cubic,221,Pm-3m,0.0,True,True
mp-1186760,SrSn3,"Sn, Sr",2,0.05659098666666296,Cubic,221,Pm-3m,0.0,True,True
mp-11374,DyTl,"Dy, Tl",2,0.0,Cubic,221,Pm-3m,0.0,False,True
mp-674,LaPd3,"La, Pd",2,0.0,Cubic,221,Pm-3m,0.0,False,True
mp-836,TbZn,"Tb, Zn",2,0.0,Cubic,221,Pm-3m,0.0,False,True
mp-1092,HoHg,"Hg, Ho",2,0.0,Cubic,221,Pm-3m,0.0,False,True
mp-1186137,NaHg3,"Hg, Na",2,0.018782196250000993,Cubic,221,Pm-3m,0.0,True,True
mp-1094867,MgZn3,"Mg, Zn",2,0.05199323797618893,Cubic,221,Pm-3m,0.0,True,True
mp-506,MgPd,"Mg, Pd",2,0.0,Cubic,221,Pm-3m,0.0,False,True
mp-2800,USi3,"Si, U",2,0.0,Cubic,221,Pm-3m,0.0,False,True
mp-11475,TmHg,"Hg, Tm",2,0.0,Cubic,221,Pm-3m,0.0,False,True
mp-1007730,HfAl3,"Al, Hf",2,0.02683596499999652,Cubic,221,Pm-3m,0.0,True,True
mp-1184064,Dy3Tm,"Dy, Tm",2,0.04688251375000618,Cubic,221,Pm-3m,0.0,True,True
mp-2672345,MgCu,"Cu, Mg",2,0.03095345624999979,Cubic,221,Pm-3m,0.0,True,True
mp-22784,InNi3,"In, Ni",2,0.07934622749999853,Cubic,221,Pm-3m,0.0,False,True
mp-866186,Ti3Zn,"Ti, Zn",2,0.01046169916666706,Cubic,221,Pm-3m,0.0,True,True
mp-1053,NdZn,"Nd, Zn",2,0.0,Cubic,221,Pm-3m,0.0,False,True
mp-1185497,LuNi3,"Lu, Ni",2,0.08189690583333231,Cubic,221,Pm-3m,0.0,True,True
mp-982780,K3Cd,"Cd, K",2,0.05621038273437584,Cubic,221,Pm-3m,0.0,True,True
mp-170,HoCd,"Cd, Ho",2,0.0,Cubic,221,Pm-3m,0.0,False,True
mp-1263,URu3,"Ru, U",2,0.0,Cubic,221,Pm-3m,0.0,False,True
mp-1183840,Ce3Er,"Ce, Er",2,0.09647023125000231,Cubic,221,Pm-3m,0.0,True,True
mp-863720,HgPd3,"Hg, Pd",2,0.022062829999999423,Cubic,221,Pm-3m,0.0,True,True
mp-867165,Pm3Si,"Pm, Si",2,0.0,Cubic,221,Pm-3m,0.0,True,True
mp-2226,DyPd,"Dy, Pd",2,0.0,Cubic,221,Pm-3m,0.0,False,True
mp-2195,LuMg,"Lu, Mg",2,0.0,Cubic,221,Pm-3m,0.0,False,True
mp-1018029,CuPd,"Cu, Pd",2,0.0,Cubic,221,Pm-3m,0.0,False,True
mp-1186551,PmEr3,"Er, Pm",2,0.05640083562500564,Cubic,221,Pm-3m,0.0,True,True
mp-1183183,AcY3,"Ac, Y",2,0.09506913062499223,Cubic,221,Pm-3m,0.0,True,True
mp-11447,UTe,"Te, U",2,0.09633641708333585,Cubic,221,Pm-3m,0.0,False,True
mp-19800,Fe11Si5,"Fe, Si",2,0.019161994062501186,Cubic,221,Pm-3m,0.0,False,True
mp-21289,TiZn3,"Ti, Zn",2,0.006043867499998079,Cubic,221,Pm-3m,0.0,False,True
mp-11221,SmAl,"Al, Sm",2,0.05576930687499981,Cubic,221,Pm-3m,0.0,False,True
mp-983590,Be3Fe,"Be, Fe",2,0.0,Cubic,221,Pm-3m,0.0,True,True
mp-1187502,Tl3Bi,"Bi, Tl",2,0.011970042499996225,Cubic,221,Pm-3m,0.0,True,True
mp-1186381,Pa3Al,"Al, Pa",2,0.011261787500004061,Cubic,221,Pm-3m,0.0,True,True
mp-21162,SrPb3,"Pb, Sr",2,0.0,Cubic,221,Pm-3m,0.0,False,True
mp-1063661,MgNi3,"Mg, Ni",2,0.09358975781249956,Cubic,221,Pm-3m,0.0,False,True
mp-2497,GdZn,"Gd, Zn",2,0.0,Cubic,221,Pm-3m,0.0,False,True
mp-20848,TmIn,"In, Tm",2,0.0,Cubic,221,Pm-3m,0.0,False,True
mp-2444,GaRh,"Ga, Rh",2,0.0,Cubic,221,Pm-3m,0.0,False,True
mp-20984,Ce3In,"Ce, In",2,0.0,Cubic,221,Pm-3m,0.0,False,True
mp-1183709,CePa3,"Ce, Pa",2,0.058180467500008604,Cubic,221,Pm-3m,0.0,True,True
mp-1206752,CeTl,"Ce, Tl",2,0.008205019999998342,Cubic,221,Pm-3m,0.0,True,True
mp-975019,Rb3Cd,"Cd, Rb",2,0.06653064298076927,Cubic,221,Pm-3m,0.0,True,True
mp-899,InRh,"In, Rh",2,0.0,Cubic,221,Pm-3m,0.0,False,True
mp-984717,BeNi3,"Be, Ni",2,0.07291103249999953,Cubic,221,Pm-3m,0.0,True,True
mp-1186032,Na3Ca,"Ca, Na",2,0.08869919508620683,Cubic,221,Pm-3m,0.0,True,True
mp-12065,Ag3Pt,"Ag, Pt",2,0.020805422500000503,Cubic,221,Pm-3m,0.0,False,True
mp-11422,GdHg,"Gd, Hg",2,0.0,Cubic,221,Pm-3m,0.0,False,True
mp-505622,Mn4N,"Mn, N",2,0.0,Cubic,221,Pm-3m,0.0,False,True
mp-1089,TiIr3,"Ir, Ti",2,0.0,Cubic,221,Pm-3m,0.0,False,True
mp-1187306,Tb3Tm,"Tb, Tm",2,0.040555702500000734,Cubic,221,Pm-3m,0.0,True,True
mp-1018042,UBi,"Bi, U",2,0.08691164000000384,Cubic,221,Pm-3m,0.0,True,True
mp-1184156,Er3In,"Er, In",2,0.01723649291666618,Cubic,221,Pm-3m,0.0,True,True
mp-1187105,Sr3Ca,"Ca, Sr",2,0.039014964999998014,Cubic,221,Pm-3m,0.0,True,True
mp-18695,Fe15Co,"Co, Fe",2,0.0009856337500000478,Cubic,221,Pm-3m,0.0,True,True
mp-980082,YHo3,"Ho, Y",2,0.06519707750000237,Cubic,221,Pm-3m,0.0,True,True
mp-1017543,ZrPd3,"Pd, Zr",2,0.025105371249999564,Cubic,221,Pm-3m,0.0,True,True
mp-1185041,KHg3,"Hg, K",2,0.04081182916665682,Cubic,221,Pm-3m,0.0,True,True
mp-12585,CrRh3,"Cr, Rh",2,0.0,Cubic,221,Pm-3m,0.0,False,True
mp-11457,HfRh,"Hf, Rh",2,0.0,Cubic,221,Pm-3m,0.0,False,True
mp-21481,Pr3Pb,"Pb, Pr",2,0.041937439444446056,Cubic,221,Pm-3m,0.0,False,True
mp-2311,NbO,"Nb, O",2,0.0,Cubic,221,Pm-3m,0.0,False,True
mp-1339,NbIr3,"Ir, Nb",2,0.002251210000004278,Cubic,221,Pm-3m,0.0,False,True
mp-23299,RbCl,"Cl, Rb",2,0.02977404000000128,Cubic,221,Pm-3m,4.7794,False,False
mp-1031,GdCd,"Cd, Gd",2,0.0,Cubic,221,Pm-3m,0.0,False,True
mp-1183745,Ce3Ho,"Ce, Ho",2,0.09661595124999778,Cubic,221,Pm-3m,0.0,True,True
mp-1094849,MgGa,"Ga, Mg",2,0.022138305000000358,Cubic,221,Pm-3m,0.0,True,True
mp-1009839,TbAl,"Al, Tb",2,0.041335158125001215,Cubic,221,Pm-3m,0.0,True,True
mp-1183736,CePr3,"Ce, Pr",2,0.08593476999999794,Cubic,221,Pm-3m,0.0,True,True
mp-20225,CePb3,"Ce, Pb",2,0.0,Cubic,221,Pm-3m,0.0,False,True
mp-867189,Pm3Pb,"Pb, Pm",2,0.0,Cubic,221,Pm-3m,0.0,True,True
mp-2642,CdAg,"Ag, Cd",2,0.0,Cubic,221,Pm-3m,0.0,False,True
mp-861987,PaIn3,"In, Pa",2,0.0,Cubic,221,Pm-3m,0.0,True,True
mp-284,AlCo,"Al, Co",2,0.0,Cubic,221,Pm-3m,0.0,False,True
mp-10890,LiAl3,"Al, Li",2,0.0109495750000006,Cubic,221,Pm-3m,0.0,False,True
mp-1008555,AlCu3,"Al, Cu",2,0.008516517500000376,Cubic,221,Pm-3m,0.0,True,True
mp-1121,GaCo,"Co, Ga",2,0.0,Cubic,221,Pm-3m,0.0,False,True
mp-866199,AcAg,"Ac, Ag",2,0.0,Cubic,221,Pm-3m,0.0,True,True
mp-11469,PrHg,"Hg, Pr",2,0.0,Cubic,221,Pm-3m,0.0,False,True
mp-1039147,CaZn,"Ca, Zn",2,0.026159390000000116,Cubic,221,Pm-3m,0.0,True,True
mp-20874,EuB6,"B, Eu",2,0.0,Cubic,221,Pm-3m,0.0,False,True
mp-972502,Sm3Dy,"Dy, Sm",2,0.002891308750001542,Cubic,221,Pm-3m,0.0,True,True
mp-1183687,CoPd3,"Co, Pd",2,0.0016408749999961003,Cubic,221,Pm-3m,0.0,True,True
mp-1094839,MgCd3,"Cd, Mg",2,0.018096665416667435,Cubic,221,Pm-3m,0.0,True,True