material_id,formula,elements,num_elements,energy_above_hull,crystal_system,spacegroup_number,spacegroup_symbol,band_gap,theoretical,is_metal
mp-1217157,Ti3O4,"O, Ti",2,0.04219237000000042,Tetragonal,139,I4/mmm,0.0,True,True
mp-1007664,InPd3,"In, Pd",2,0.005576428750000417,Tetragonal,139,I4/mmm,0.0,False,True
mp-1206780,Ti2Sb,"Sb, Ti",2,0.0,Tetragonal,139,I4/mmm,0.0,True,True
mp-266,Zr2Pd,"Pd, Zr",2,0.0,Tetragonal,139,I4/mmm,0.0,False,True
mp-1018153,HfAu2,"Au, Hf",2,0.0,Tetragonal,139,I4/mmm,0.0,False,True
mp-1185204,Li3Ni,"Li, Ni",2,0.0932833249999998,Tetragonal,139,I4/mmm,0.0,True,True
mp-1186450,PdPt3,"Pd, Pt",2,0.0,Tetragonal,139,I4/mmm,0.0,True,True
mp-985301,AcDy3,"Ac, Dy",2,0.07124375937500105,Tetragonal,139,I4/mmm,0.0,True,True
mp-2705,VPt3,"Pt, V",2,0.011099447500001247,Tetragonal,139,I4/mmm,0.0,False,True
mp-1185150,La3Nd,"La, Nd",2,0.021278054375002853,Tetragonal,139,I4/mmm,0.0,True,True
mp-1187849,YHo3,"Ho, Y",2,0.06254683000000227,Tetragonal,139,I4/mmm,0.0,True,True
mp-1077018,Sm2Sb,"Sb, Sm",2,0.0048565883333360205,Tetragonal,139,I4/mmm,0.0,False,True
mp-1095016,CaMg2,"Ca, Mg",2,0.07243268833333305,Tetragonal,139,I4/mmm,0.0,True,True
mp-1183091,Ac3Er,"Ac, Er",2,0.07069343312500109,Tetragonal,139,I4/mmm,0.0,True,True
mp-13498,Tb2Mg,"Mg, Tb",2,0.01758099111110978,Tetragonal,139,I4/mmm,0.0,False,True
mp-30852,TiPt8,"Pt, Ti",2,0.0,Tetragonal,139,I4/mmm,0.0,False,True
mp-13155,Hf2Ag,"Ag, Hf",2,0.0,Tetragonal,139,I4/mmm,0.0,False,True
mp-976418,Nd3Ho,"Ho, Nd",2,0.028583768125002962,Tetragonal,139,I4/mmm,0.0,True,True
mp-2697,SrO2,"O, Sr",2,0.0,Tetragonal,139,I4/mmm,2.8495000000000004,False,False
mp-1184745,HoBi3,"Bi, Ho",2,0.0787089899999982,Tetragonal,139,I4/mmm,0.0,True,True
mp-2120,HoAg2,"Ag, Ho",2,0.0,Tetragonal,139,I4/mmm,0.0,False,True
mp-1094567,LiMg3,"Li, Mg",2,0.02831194833333317,Tetragonal,139,I4/mmm,0.0,True,True
mp-12761,BeAu2,"Au, Be",2,0.0,Tetragonal,139,I4/mmm,0.0,False,True
mp-11567,ScZn12,"Sc, Zn",2,0.0,Tetragonal,139,I4/mmm,0.0,False,True
mp-873,VPd3,"Pd, V",2,0.008876747500000448,Tetragonal,139,I4/mmm,0.0,False,True
mp-1186708,Pr3Dy,"Dy, Pr",2,0.03735879250000096,Tetragonal,139,I4/mmm,0.0,True,True
mp-1196279,Sc11Ge10,"Ge, Sc",2,0.016020864047618488,Tetragonal,139,I4/mmm,0.0,False,True
mp-1590,Be12Cr,"Be, Cr",2,0.0002578444230767474,Tetragonal,139,I4/mmm,0.0,False,True
mp-11454,Hf2Pd,"Hf, Pd",2,0.0,Tetragonal,139,I4/mmm,0.0,False,True
mp-1183787,CeEr3,"Ce, Er",2,0.08226233874999878,Tetragonal,139,I4/mmm,0.0,True,True
mp-1183824,Ce3Th,"Ce, Th",2,0.025644395000000486,Tetragonal,139,I4/mmm,0.0,True,True
mp-2554,Al3V,"Al, V",2,0.0,Tetragonal,139,I4/mmm,0.0,False,True
mp-972517,SmY3,"Sm, Y",2,0.07355721999999787,Tetragonal,139,I4/mmm,0.0,True,True
mp-1094476,MgZn3,"Mg, Zn",2,0.07171987047618922,Tetragonal,139,I4/mmm,0.0,True,True
mp-13497,Er2Mg,"Er, Mg",2,0.016851060000000473,Tetragonal,139,I4/mmm,0.0,False,True
mp-571505,Rb2In3,"In, Rb",2,0.0056279337619051795,Tetragonal,139,I4/mmm,0.0,False,True
mp-975641,Pr3Cd,"Cd, Pr",2,0.05499708666667047,Tetragonal,139,I4/mmm,0.0,True,True
mp-1187350,TbHo3,"Ho, Tb",2,0.04852232500000042,Tetragonal,139,I4/mmm,0.0,True,True
mp-2336,PrAl4,"Al, Pr",2,0.047715902999998505,Tetragonal,139,I4/mmm,0.0,False,True
mp-1186189,NaTl3,"Na, Tl",2,0.0,Tetragonal,139,I4/mmm,0.0,True,True
mp-1187360,TbCe3,"Ce, Tb",2,0.09544303875000182,Tetragonal,139,I4/mmm,0.0,True,True
mp-1094174,LaMg3,"La, Mg",2,0.001074660000000005,Tetragonal,139,I4/mmm,0.0,True,True
mp-1018149,ScCu2,"Cu, Sc",2,0.0,Tetragonal,139,I4/mmm,0.0,False,True
mp-1183230,AcSm3,"Ac, Sm",2,0.04745785312499606,Tetragonal,139,I4/mmm,0.0,True,True
mp-1299,SiPt2,"Pt, Si",2,0.0,Tetragonal,139,I4/mmm,0.0,False,True
mp-24726,TiH2,"H, Ti",2,0.0,Tetragonal,139,I4/mmm,0.0,False,True
mp-975882,Li3Cu,"Cu, Li",2,0.059976963055556,Tetragonal,139,I4/mmm,0.0,True,True
mp-1185133,LaPm3,"La, Pm",2,0.026785945624997254,Tetragonal,139,I4/mmm,0.0,True,True
mp-1183214,Ag3Au,"Ag, Au",2,0.0004100274999991882,Tetragonal,139,I4/mmm,0.0,True,True
mp-1183217,AcTb3,"Ac, Tb",2,0.07087070812499974,Tetragonal,139,I4/mmm,0.0,True,True
mp-1222037,MgIn2,"In, Mg",2,0.003852182962963635,Tetragonal,139,I4/mmm,0.0,True,True
mp-982373,Pm3Zn,"Pm, Zn",2,0.07331382916666485,Tetragonal,139,I4/mmm,0.0,True,True
mp-1070844,ThPt2,"Pt, Th",2,0.0,Tetragonal,139,I4/mmm,0.0,False,True
mp-985278,AcF3,"Ac, F",2,0.0,Tetragonal,139,I4/mmm,6.162600000000001,True,False
mp-1077777,Pr2Bi,"Bi, Pr",2,0.014238734259258479,Tetragonal,139,I4/mmm,0.0,False,True
mp-1423,HoC2,"C, Ho",2,0.07491460916666437,Tetragonal,139,I4/mmm,0.0,False,True
mp-10909,AlRe2,"Al, Re",2,0.0,Tetragonal,139,I4/mmm,0.0,False,True
mp-24291,ThH2,"H, Th",2,0.0,Tetragonal,139,I4/mmm,0.0,False,True
mp-976322,Li3Pt,"Li, Pt",2,0.004036912500000156,Tetragonal,139,I4/mmm,0.0,True,True
mp-1185856,MgCu3,"Cu, Mg",2,0.06979783749999946,Tetragonal,139,I4/mmm,0.0,True,True
mp-1973,NbGa3,"Ga, Nb",2,0.0,Tetragonal,139,I4/mmm,0.0,False,True
mp-1018123,TiAu2,"Au, Ti",2,0.0,Tetragonal,139,I4/mmm,0.0,False,True
mp-12049,Nd2Sb,"Nd, Sb",2,0.0,Tetragonal,139,I4/mmm,0.0,False,True
mp-979028,Sm2Mg,"Mg, Sm",2,0.017045338333332438,Tetragonal,139,I4/mmm,0.0,True,True
mp-1183423,Be3Co,"Be, Co",2,0.0,Tetragonal,139,I4/mmm,0.0,True,True
mp-2123,Nb3Au2,"Au, Nb",2,0.0,Tetragonal,139,I4/mmm,0.0,False,True
mp-1094676,Mg3Bi,"Bi, Mg",2,0.06633827062499797,Tetragonal,139,I4/mmm,0.0,True,True
mp-972326,TcPt3,"Pt, Tc",2,0.0,Tetragonal,139,I4/mmm,0.0,True,True
mp-1078858,U3Si,"Si, U",2,0.0,Tetragonal,139,I4/mmm,0.0,True,True
mp-1038916,MgAl3,"Al, Mg",2,0.025026051249999792,Tetragonal,139,I4/mmm,0.0,True,True
mp-971906,TmBi3,"Bi, Tm",2,0.09560727750000098,Tetragonal,139,I4/mmm,0.0,True,True
mp-976421,Nd3Mg,"Mg, Nd",2,0.05362515124999945,Tetragonal,139,I4/mmm,0.0,True,True
mp-975906,LiAl3,"Al, Li",2,0.026654015000000975,Tetragonal,139,I4/mmm,0.0,True,True
mp-30581,Hf2Cu,"Cu, Hf",2,0.0,Tetragonal,139,I4/mmm,0.0,False,True
mp-1396980,BiF4,"Bi, F",2,0.07587075099999918,Tetragonal,139,I4/mmm,0.6554,True,False
mp-1018121,TiPd2,"Pd, Ti",2,0.0012809466666681146,Tetragonal,139,I4/mmm,0.0,False,True
mp-1187300,Tb3Pm,"Pm, Tb",2,0.030912812500002218,Tetragonal,139,I4/mmm,0.0,True,True
mp-1183641,Cd3Pt,"Cd, Pt",2,0.0,Tetragonal,139,I4/mmm,0.0,True,True
mp-1185066,La3Hg,"Hg, La",2,0.05011687749999538,Tetragonal,139,I4/mmm,0.0,True,True
mp-1186790,Pr3Eu,"Eu, Pr",2,0.08865487375000214,Tetragonal,139,I4/mmm,0.0,True,True
mp-1187169,SrCa3,"Ca, Sr",2,0.030013997499997558,Tetragonal,139,I4/mmm,0.0,True,True
mp-1475,Be12Mo,"Be, Mo",2,0.0,Tetragonal,139,I4/mmm,0.0,False,True
mp-979014,SrAc3,"Ac, Sr",2,0.07353506395833875,Tetragonal,139,I4/mmm,0.0,True,True
mp-865357,Zn3Pd,"Pd, Zn",2,0.0,Tetragonal,139,I4/mmm,0.0,True,True
mp-1018166,AlTc2,"Al, Tc",2,0.0,Tetragonal,139,I4/mmm,0.0,False,True
mp-869,TaAl3,"Al, Ta",2,0.0,Tetragonal,139,I4/mmm,0.0,False,True
mp-978969,TlAu3,"Au, Tl",2,0.09483903499999968,Tetragonal,139,I4/mmm,0.0,True,True
mp-979924,Dy3Y,"Dy, Y",2,0.0549489545833346,Tetragonal,139,I4/mmm,0.0,True,True
mp-1183224,AgAu3,"Ag, Au",2,0.0017489875000009647,Tetragonal,139,I4/mmm,0.0,True,True
mp-976414,Li3Zn,"Li, Zn",2,0.025022655416666595,Tetragonal,139,I4/mmm,0.0,True,True
mp-19783,GdAg2,"Ag, Gd",2,0.0,Tetragonal,139,I4/mmm,0.0,False,True
mp-1201454,Sm11Sn10,"Sm, Sn",2,0.0,Tetragonal,139,I4/mmm,0.0,False,True
mp-1014231,Hf2Zn,"Hf, Zn",2,0.0,Tetragonal,139,I4/mmm,0.0,False,True
mp-1184538,GdY3,"Gd, Y",2,0.08870155749999853,Tetragonal,139,I4/mmm,0.0,True,True
mp-1185156,LaCe3,"Ce, La",2,0.06554969249999942,Tetragonal,139,I4/mmm,0.0,True,True
mp-1187331,TbBi3,"Bi, Tb",2,0.05983960750000161,Tetragonal,139,I4/mmm,0.0,True,True
mp-973464,LaEr3,"Er, La",2,0.07429923625000612,Tetragonal,139,I4/mmm,0.0,True,True
mp-1185042,KHg3,"Hg, K",2,0.03003326416666141,Tetragonal,139,I4/mmm,0.0,True,True
mp-1186691,Pr2Mg,"Mg, Pr",2,0.032407866111113126,Tetragonal,139,I4/mmm,0.0,True,True
mp-27731,HfH2,"H, Hf",2,0.0,Tetragonal,139,I4/mmm,0.0,False,True
mp-1186109,NaAu3,"Au, Na",2,0.09173926625000206,Tetragonal,139,I4/mmm,0.0,True,True
mp-571438,Be12V,"Be, V",2,0.0,Tetragonal,139,I4/mmm,0.0,False,True
mp-1103837,HoZn12,"Ho, Zn",2,0.0,Tetragonal,139,I4/mmm,0.0,False,True
mp-12764,SmC2,"C, Sm",2,0.02263802125000236,Tetragonal,139,I4/mmm,0.0,False,True
mp-2289,CeAl4,"Al, Ce",2,0.02880991533333166,Tetragonal,139,I4/mmm,0.0,False,True
mp-1187313,Tb3Tm,"Tb, Tm",2,0.037836912499997766,Tetragonal,139,I4/mmm,0.0,True,True
mp-1186442,Pd3Rh,"Pd, Rh",2,0.05344215999999946,Tetragonal,139,I4/mmm,0.0,True,True
mp-1184177,Er3Sn,"Er, Sn",2,0.09202029791666799,Tetragonal,139,I4/mmm,0.0,True,True
mp-976824,MgPb3,"Mg, Pb",2,0.03443889999999916,Tetragonal,139,I4/mmm,0.0,True,True
mp-1104815,LaMg12,"La, Mg",2,0.013516861923076995,Tetragonal,139,I4/mmm,0.0,True,True
mp-1186494,Pm3Au,"Au, Pm",2,0.0230085674999998,Tetragonal,139,I4/mmm,0.0,True,True
mp-1186502,Pm3Er,"Er, Pm",2,0.032902696041663404,Tetragonal,139,I4/mmm,0.0,True,True
mp-1185211,LaY3,"La, Y",2,0.083696986249997,Tetragonal,139,I4/mmm,0.0,True,True
mp-1183435,Ce3Er,"Ce, Er",2,0.08977921125000066,Tetragonal,139,I4/mmm,0.0,True,True
mp-1186536,Pm3Tm,"Pm, Tm",2,0.03274347958333479,Tetragonal,139,I4/mmm,0.0,True,True
mp-865939,LiMg2,"Li, Mg",2,0.0,Tetragonal,139,I4/mmm,0.0,True,True
mp-977057,NpAs3,"As, Np",2,0.09092665499999697,Tetragonal,139,I4/mmm,0.0,True,True
mp-8937,CrSi2,"Cr, Si",2,0.0,Tetragonal,139,I4/mmm,0.0,True,True
mp-1185411,LiEu3,"Eu, Li",2,0.09655798166666685,Tetragonal,139,I4/mmm,0.0,True,True
mp-975411,RbBr3,"Br, Rb",2,0.0,Tetragonal,139,I4/mmm,0.0,True,True
mp-972285,Sr3Li,"Li, Sr",2,0.09762760213068167,Tetragonal,139,I4/mmm,0.0,True,True
mp-1071848,Pr2Sb,"Pr, Sb",2,0.0,Tetragonal,139,I4/mmm,0.0,False,True
mp-1038790,Ce3Mg,"Ce, Mg",2,0.09345223083333565,Tetragonal,139,I4/mmm,0.0,True,True
mp-20593,VO2,"O, V",2,0.016829682083317365,Tetragonal,139,I4/mmm,0.0,True,True
mp-569167,Nb4N3,"N, Nb",2,0.06939945571429007,Tetragonal,139,I4/mmm,0.0,False,True
mp-1185120,K3Tl,"K, Tl",2,0.08749600322321438,Tetragonal,139,I4/mmm,0.0,True,True
mp-1184794,IrRh3,"Ir, Rh",2,0.0,Tetragonal,139,I4/mmm,0.0,True,True
mp-30772,NdMg12,"Mg, Nd",2,0.025036698076922992,Tetragonal,139,I4/mmm,0.0,False,True
mp-1229101,Ag2Te,"Ag, Te",2,0.04346793833333251,Tetragonal,139,I4/mmm,0.0,True,True
mp-1186067,Na3Pd,"Na, Pd",2,0.005685117500000558,Tetragonal,139,I4/mmm,0.0,True,True
mp-1039347,SnBi3,"Bi, Sn",2,0.09642573625000006,Tetragonal,139,I4/mmm,0.0,True,True
mp-1184632,Hf3Hg,"Hf, Hg",2,0.0765464300000076,Tetragonal,139,I4/mmm,0.0,True,True
mp-600085,SiO2,"O, Si",2,0.01815009833333292,Tetragonal,139,I4/mmm,5.7642,True,False
mp-21477,RbIn4,"In, Rb",2,0.0,Tetragonal,139,I4/mmm,0.0,False,True
mp-973308,MgIn3,"In, Mg",2,0.014425605555556942,Tetragonal,139,I4/mmm,0.0,True,True
mp-1186127,NaCd3,"Cd, Na",2,0.0,Tetragonal,139,I4/mmm,0.0,True,True
mp-24286,ZrH2,"H, Zr",2,0.0,Tetragonal,139,I4/mmm,0.0,False,True
mp-1018128,ScAg2,"Ag, Sc",2,0.0,Tetragonal,139,I4/mmm,0.0,False,True
mp-1014229,Ti2Zn,"Ti, Zn",2,0.0,Tetragonal,139,I4/mmm,0.0,False,True
mp-1185461,LiSn3,"Li, Sn",2,0.03375891249999974,Tetragonal,139,I4/mmm,0.0,True,True
mp-12742,MgPd3,"Mg, Pd",2,0.0,Tetragonal,139,I4/mmm,0.0,False,True
mp-985059,AcLa3,"Ac, La",2,0.025576441875003297,Tetragonal,139,I4/mmm,0.0,True,True
mp-1186563,PmEr3,"Er, Pm",2,0.057703985625003895,Tetragonal,139,I4/mmm,0.0,True,True
mp-30836,TaPd3,"Pd, Ta",2,0.0,Tetragonal,139,I4/mmm,0.0,False,True
mp-395,ZrAl3,"Al, Zr",2,0.0,Tetragonal,139,I4/mmm,0.0,False,True
mp-1186925,SbAu3,"Au, Sb",2,0.07940745083333667,Tetragonal,139,I4/mmm,0.0,True,True
mp-28919,Hf3Te2,"Hf, Te",2,0.0,Tetragonal,139,I4/mmm,0.0,False,True
mp-1183660,CdPb3,"Cd, Pb",2,0.05647821000000164,Tetragonal,139,I4/mmm,0.0,True,True
mp-1217329,ThZr2,"Th, Zr",2,0.09132835666667205,Tetragonal,139,I4/mmm,0.0,True,True
mp-1009657,CaN2,"Ca, N",2,0.0,Tetragonal,139,I4/mmm,0.0,False,True
mp-1196703,Er11Sn10,"Er, Sn",2,0.0,Tetragonal,139,I4/mmm,0.0,False,True
mp-1183239,AcPr3,"Ac, Pr",2,0.042426806874999556,Tetragonal,139,I4/mmm,0.0,True,True
mp-1187054,Th3Mg,"Mg, Th",2,0.06629597875000215,Tetragonal,139,I4/mmm,0.0,True,True
mp-1183411,Be3Rh,"Be, Rh",2,0.012471473750000683,Tetragonal,139,I4/mmm,0.0,True,True
mp-568069,Ti2Bi,"Bi, Ti",2,0.0,Tetragonal,139,I4/mmm,0.0,False,True
mp-13164,Ti2Pd,"Pd, Ti",2,0.0,Tetragonal,139,I4/mmm,0.0,False,True
mp-976272,LiCa3,"Ca, Li",2,0.07740214875000007,Tetragonal,139,I4/mmm,0.0,True,True
mp-30359,TmAg2,"Ag, Tm",2,0.0,Tetragonal,139,I4/mmm,0.0,False,True
mp-1183748,Ce3Cd,"Cd, Ce",2,0.07073031562499921,Tetragonal,139,I4/mmm,0.0,True,True
mp-1183635,Cd3Pd,"Cd, Pd",2,0.040184492567565844,Tetragonal,139,I4/mmm,0.0,True,True
mp-862714,Be3Ir,"Be, Ir",2,0.0,Tetragonal,139,I4/mmm,0.0,True,True
mp-1827,SrGa4,"Ga, Sr",2,0.0,Tetragonal,139,I4/mmm,0.0,False,True
mp-862658,LiCu3,"Cu, Li",2,0.0,Tetragonal,139,I4/mmm,0.0,True,True
mp-568827,Be12W,"Be, W",2,0.0,Tetragonal,139,I4/mmm,0.0,False,True
mp-20642,NdMn12,"Mn, Nd",2,0.05165349825596799,Tetragonal,139,I4/mmm,0.0,False,True
mp-2486,UC2,"C, U",2,0.0,Tetragonal,139,I4/mmm,0.0,False,True
mp-985296,Ag3Pd,"Ag, Pd",2,0.0,Tetragonal,139,I4/mmm,0.0,True,True
mp-1187354,Tb3Ce,"Ce, Tb",2,0.08508359874999982,Tetragonal,139,I4/mmm,0.0,True,True
mp-1184679,HgBi3,"Bi, Hg",2,0.07021915687499813,Tetragonal,139,I4/mmm,0.0,True,True
mp-570491,TaNi3,"Ni, Ta",2,0.0002612381250024498,Tetragonal,139,I4/mmm,0.0,False,True
mp-1199158,Tm11Sn10,"Sn, Tm",2,0.0,Tetragonal,139,I4/mmm,0.0,False,True
mp-1187301,Tb3Pr,"Pr, Tb",2,0.038563687083332354,Tetragonal,139,I4/mmm,0.0,True,True
mp-570179,TbAu2,"Au, Tb",2,0.0,Tetragonal,139,I4/mmm,0.0,False,True
mp-1187410,Th3Hg,"Hg, Th",2,0.07990589999998576,Tetragonal,139,I4/mmm,0.0,True,True
mp-12857,Mn3N2,"Mn, N",2,0.09555193449999955,Tetragonal,139,I4/mmm,0.0,False,True
mp-1187010,Sm3Cd,"Cd, Sm",2,0.06929157499999894,Tetragonal,139,I4/mmm,0.0,True,True
mp-22897,HgCl,"Cl, Hg",2,0.0,Tetragonal,139,I4/mmm,2.7243000000000004,False,False
mp-1184658,HgPd3,"Hg, Pd",2,0.0,Tetragonal,139,I4/mmm,0.0,True,True
mp-1018130,PaC2,"C, Pa",2,0.03381252083332775,Tetragonal,139,I4/mmm,0.0,False,True
mp-976818,Ni3Au,"Au, Ni",2,0.09746691250000339,Tetragonal,139,I4/mmm,0.0,True,True
mp-30870,SmZn12,"Sm, Zn",2,0.0,Tetragonal,139,I4/mmm,0.0,False,True
mp-11299,Cd2Hg,"Cd, Hg",2,0.004843204166668613,Tetragonal,139,I4/mmm,0.0,False,True
mp-1185132,LaPr3,"La, Pr",2,0.030664879999999783,Tetragonal,139,I4/mmm,0.0,True,True
mp-1105,BaO2,"Ba, O",2,0.0,Tetragonal,139,I4/mmm,2.2352,False,False
mp-1196590,Lu11Ge10,"Ge, Lu",2,0.0,Tetragonal,139,I4/mmm,0.0,False,True
mp-1186301,NdDy3,"Dy, Nd",2,0.040463239375000626,Tetragonal,139,I4/mmm,0.0,True,True
mp-1185990,MgTl3,"Mg, Tl",2,0.04281509833332642,Tetragonal,139,I4/mmm,0.0,True,True
mp-865610,LuH3,"H, Lu",2,0.08978428666666538,Tetragonal,139,I4/mmm,0.022199999999999775,True,False
mp-22466,SrIn4,"In, Sr",2,0.01011527822222158,Tetragonal,139,I4/mmm,0.0,False,True
mp-1185264,La3Eu,"Eu, La",2,0.05572909874999965,Tetragonal,139,I4/mmm,0.0,True,True
mp-1157,TaNi2,"Ni, Ta",2,0.003738403500005205,Tetragonal,139,I4/mmm,0.0,False,True
mp-30886,YZn12,"Y, Zn",2,0.0,Tetragonal,139,I4/mmm,0.0,False,True
mp-977403,Na3Tl,"Na, Tl",2,0.009273631562500384,Tetragonal,139,I4/mmm,0.0,True,True
mp-971804,ZnNi3,"Ni, Zn",2,0.011426597499999858,Tetragonal,139,I4/mmm,0.0,True,True
mp-1183713,CeH3,"Ce, H",2,0.0030615800000006743,Tetragonal,139,I4/mmm,0.0,True,True
mp-1018113,YAu2,"Au, Y",2,0.0,Tetragonal,139,I4/mmm,0.0,False,True
mp-1183387,BaEu3,"Ba, Eu",2,0.07022323124999552,Tetragonal,139,I4/mmm,0.0,True,True
mp-1187295,Tb3Nd,"Nd, Tb",2,0.03245304312499897,Tetragonal,139,I4/mmm,0.0,True,True
mp-999204,ScAl3,"Al, Sc",2,0.0931855800000001,Tetragonal,139,I4/mmm,0.0,True,True
mp-976075,Li3Ca,"Ca, Li",2,0.06004755895833336,Tetragonal,139,I4/mmm,0.0,True,True
mp-1185332,LiGa3,"Ga, Li",2,0.09582855275000135,Tetragonal,139,I4/mmm,0.0,True,True
mp-978546,Sc3Sb,"Sb, Sc",2,0.08849430375000011,Tetragonal,139,I4/mmm,0.0,True,True
mp-1094159,Li3Mg,"Li, Mg",2,0.0037423229166666516,Tetragonal,139,I4/mmm,0.0,True,True
mp-313,YC2,"C, Y",2,0.06852280333333205,Tetragonal,139,I4/mmm,0.0,False,True
mp-1094433,Mg3Zn,"Mg, Zn",2,0.06394395365000038,Tetragonal,139,I4/mmm,0.0,True,True
mp-980385,Tb3Er,"Er, Tb",2,0.03959202666666428,Tetragonal,139,I4/mmm,0.0,True,True
mp-1103916,TmZn12,"Tm, Zn",2,0.0,Tetragonal,139,I4/mmm,0.0,False,True
mp-7188,Al2Os,"Al, Os",2,0.0,Tetragonal,139,I4/mmm,0.2898999999999994,False,False
mp-976135,PrEr3,"Er, Pr",2,0.06619891208332973,Tetragonal,139,I4/mmm,0.0,True,True
mp-1065309,ZrAl3,"Al, Zr",2,0.033282970000000134,Tetragonal,139,I4/mmm,0.0,True,True
mp-2731,TiGa3,"Ga, Ti",2,0.0,Tetragonal,139,I4/mmm,0.0,False,True
mp-16475,Sr11Sb10,"Sb, Sr",2,0.0,Tetragonal,139,I4/mmm,0.0,False,True
mp-1217168,Ti4Pd,"Pd, Ti",2,0.0529252453333342,Tetragonal,139,I4/mmm,0.0,True,True
mp-1222266,Lu3S4,"Lu, S",2,0.0,Tetragonal,139,I4/mmm,0.0,True,True
mp-864758,Na3In,"In, Na",2,0.040365352500000284,Tetragonal,139,I4/mmm,0.0,True,True
mp-22482,ErMn12,"Er, Mn",2,0.09200664405172176,Tetragonal,139,I4/mmm,0.0,False,True
mp-16521,Al3Os2,"Al, Os",2,0.007409683000005884,Tetragonal,139,I4/mmm,0.0,False,True
mp-27298,Ca11Bi10,"Bi, Ca",2,0.0,Tetragonal,139,I4/mmm,0.0,False,True
mp-1416,NbF4,"F, Nb",2,0.06794872786666595,Tetragonal,139,I4/mmm,0.0,False,True
mp-1185792,Mg3Tl,"Mg, Tl",2,0.02351560125000063,Tetragonal,139,I4/mmm,0.0,True,True
mp-981232,Ti3Nb,"Nb, Ti",2,0.08193619749999925,Tetragonal,139,I4/mmm,0.0,True,True
mp-976419,Hf3Bi,"Bi, Hf",2,0.0746035554166653,Tetragonal,139,I4/mmm,0.0,True,True
mp-1185275,LiPb3,"Li, Pb",2,0.0203805325000026,Tetragonal,139,I4/mmm,0.0,True,True
mp-1007855,FeNi3,"Fe, Ni",2,0.01703252250000009,Tetragonal,139,I4/mmm,0.0,True,True
mp-341,PbF4,"F, Pb",2,0.0,Tetragonal,139,I4/mmm,1.9022000000000001,False,False
mp-1183234,AcSe3,"Ac, Se",2,0.00487188500000002,Tetragonal,139,I4/mmm,0.0,True,True
mp-1216464,V4N3,"N, V",2,0.09409959476190544,Tetragonal,139,I4/mmm,0.0,True,True
mp-1185152,La3Tb,"La, Tb",2,0.028400061250003716,Tetragonal,139,I4/mmm,0.0,True,True
mp-1187475,Ti3Be,"Be, Ti",2,0.07207742979166643,Tetragonal,139,I4/mmm,0.0,True,True
mp-1183226,AcY3,"Ac, Y",2,0.09855468562499681,Tetragonal,139,I4/mmm,0.0,True,True
mp-1186545,Pm3Th,"Pm, Th",2,0.07301467437499554,Tetragonal,139,I4/mmm,0.0,True,True
mp-975868,Li3Al,"Al, Li",2,0.05941175812499999,Tetragonal,139,I4/mmm,0.0,True,True
mp-1185337,LiHg3,"Hg, Li",2,0.012928956250000567,Tetragonal,139,I4/mmm,0.0,True,True
mp-1186516,Pm3Ho,"Ho, Pm",2,0.028237218124999686,Tetragonal,139,I4/mmm,0.0,True,True
mp-30703,Hf11Ga10,"Ga, Hf",2,0.0,Tetragonal,139,I4/mmm,0.0,False,True
mp-1183643,CdAu3,"Au, Cd",2,0.0039115712499935285,Tetragonal,139,I4/mmm,0.0,True,True
mp-864742,Na3Sn,"Na, Sn",2,0.03806853762499962,Tetragonal,139,I4/mmm,0.0,True,True
mp-1018148,ScAu2,"Au, Sc",2,0.0,Tetragonal,139,I4/mmm,0.0,False,True
mp-542293,Ba11Bi10,"Ba, Bi",2,0.0,Tetragonal,139,I4/mmm,0.0,False,True
mp-1183646,Cd3Ga,"Cd, Ga",2,0.08189029749999932,Tetragonal,139,I4/mmm,0.0,True,True
mp-2119,TbC2,"C, Tb",2,0.0437705460416673,Tetragonal,139,I4/mmm,0.0,False,True
mp-1995,PrC2,"C, Pr",2,0.014935701250002431,Tetragonal,139,I4/mmm,0.0,False,True
mp-639892,GdMn12,"Gd, Mn",2,0.016570601909815963,Tetragonal,139,I4/mmm,0.0,False,True
mp-972471,Sm3Ho,"Ho, Sm",2,0.030255976250000316,Tetragonal,139,I4/mmm,0.0,True,True
mp-1094255,Zr3Sn,"Sn, Zr",2,0.047593937500000294,Tetragonal,139,I4/mmm,0.0,True,True
mp-1210627,Mn3Ga,"Ga, Mn",2,0.0505323135344824,Tetragonal,139,I4/mmm,0.0,True,True
mp-1103808,La4H9,"H, La",2,0.0,Tetragonal,139,I4/mmm,0.0,True,True
mp-973339,Lu3Th,"Lu, Th",2,0.030868655000013234,Tetragonal,139,I4/mmm,0.0,True,True
mp-978548,SmEr3,"Er, Sm",2,0.056369522499998936,Tetragonal,139,I4/mmm,0.0,True,True
mp-1018152,LuAu2,"Au, Lu",2,0.0,Tetragonal,139,I4/mmm,0.0,False,True
mp-1579,ErC2,"C, Er",2,0.08034501604166877,Tetragonal,139,I4/mmm,0.0,False,True
mp-568052,K2Ga3,"Ga, K",2,0.0001027765499999056,Tetragonal,139,I4/mmm,0.2106999999999999,False,False