material_id,formula,elements,num_elements,energy_above_hull,crystal_system,spacegroup_number,spacegroup_symbol,band_gap,theoretical,is_metal
mp-2126,HfIr3,"Hf, Ir",2,0.0,Cubic,221,Pm-3m,0.0,False,True
mp-712,YCu,"Cu, Y",2,0.018895730000000555,Cubic,221,Pm-3m,0.0,False,True
mp-1183162,AlFe3,"Al, Fe",2,0.0,Cubic,221,Pm-3m,0.0,True,True
mp-2522,LuHg,"Hg, Lu",2,0.0,Cubic,221,Pm-3m,0.0,False,True
mp-20366,Sm3Ga,"Ga, Sm",2,0.07426452031250008,Cubic,221,Pm-3m,0.0,False,True
mp-2026,PrTl3,"Pr, Tl",2,0.0,Cubic,221,Pm-3m,0.0,False,True
mp-976254,Li3Mg,"Li, Mg",2,0.015598815416666856,Cubic,221,Pm-3m,0.0,True,True
mp-1187923,Zn3Cr,"Cr, Zn",2,0.09739731250000006,Cubic,221,Pm-3m,0.0,True,True
mp-11500,MnNi,"Mn, Ni",2,0.0,Cubic,221,Pm-3m,0.0,False,True
mp-1296,ErB6,"B, Er",2,0.053575387500002236,Cubic,221,Pm-3m,0.0,False,True
mp-2696,MgAg,"Ag, Mg",2,0.0,Cubic,221,Pm-3m,0.0,False,True
mp-1186278,Nd3Eu,"Eu, Nd",2,0.08233210562500304,Cubic,221,Pm-3m,0.0,True,True
mp-569125,Mg3In,"In, Mg",2,0.016354179999998664,Cubic,221,Pm-3m,0.0,False,True
mp-11249,LuAu,"Au, Lu",2,0.0,Cubic,221,Pm-3m,0.0,False,True
mp-1184761,Ir3Os,"Ir, Os",2,0.021401844999999753,Cubic,221,Pm-3m,0.0,True,True
mp-1002109,VCo,"Co, V",2,0.0,Cubic,221,Pm-3m,0.0,True,True
mp-998981,TiAl3,"Al, Ti",2,0.023057415000000248,Cubic,221,Pm-3m,0.0,True,True
mp-11406,Pr3Ga,"Ga, Pr",2,0.08324435048611178,Cubic,221,Pm-3m,0.0,False,True
mp-1206636,SrTl3,"Sr, Tl",2,0.029404816250000465,Cubic,221,Pm-3m,0.0,True,True
mp-11240,DyAu,"Au, Dy",2,0.03940022999999826,Cubic,221,Pm-3m,0.0,False,True
mp-866022,CdPt3,"Cd, Pt",2,0.007683415000002469,Cubic,221,Pm-3m,0.0,True,True
mp-2217,LuCd,"Cd, Lu",2,0.0,Cubic,221,Pm-3m,0.0,False,True
mp-1185202,KPb3,"K, Pb",2,0.068886191874995,Cubic,221,Pm-3m,0.0,True,True
mp-1948,LaAg,"Ag, La",2,0.0,Cubic,221,Pm-3m,0.0,False,True
mp-21432,LaPb3,"La, Pb",2,0.0,Cubic,221,Pm-3m,0.0,False,True
mp-999543,MnCo3,"Co, Mn",2,0.06809623249999941,Cubic,221,Pm-3m,0.0,True,True
mp-1187279,Tb3Hg,"Hg, Tb",2,0.08768202499999944,Cubic,221,Pm-3m,0.0,True,True
mp-12661,Cd3In,"Cd, In",2,0.04173347250000248,Cubic,221,Pm-3m,0.0,False,True
mp-2523,PuPt3,"Pt, Pu",2,0.0,Cubic,221,Pm-3m,0.0,False,True
mp-20971,SnPt3,"Pt, Sn",2,0.0,Cubic,221,Pm-3m,0.0,False,True
mp-1169,ScCu,"Cu, Sc",2,0.0,Cubic,221,Pm-3m,0.0,False,True
mp-768,TmAl3,"Al, Tm",2,0.001857505000000259,Cubic,221,Pm-3m,0.0,False,True
mp-20566,MgIn3,"In, Mg",2,0.024540943055557207,Cubic,221,Pm-3m,0.0,False,True
mp-1185074,LaNd3,"La, Nd",2,0.023678158125001403,Cubic,221,Pm-3m,0.0,True,True
mp-1186262,Nd3Dy,"Dy, Nd",2,0.03125863812500285,Cubic,221,Pm-3m,0.0,True,True
mp-1186530,Pm3Sm,"Pm, Sm",2,0.02719539437499563,Cubic,221,Pm-3m,0.0,True,True
mp-1014219,HfZn,"Hf, Zn",2,0.008220216666664726,Cubic,221,Pm-3m,0.0,True,True
mp-10596,FeIr3,"Fe, Ir",2,0.03003229249999606,Cubic,221,Pm-3m,0.0,False,True
mp-19764,Pr3In,"In, Pr",2,0.0,Cubic,221,Pm-3m,0.0,False,True
mp-1186348,NdGd3,"Gd, Nd",2,0.09329728812500093,Cubic,221,Pm-3m,0.0,True,True
mp-348,TmPd,"Pd, Tm",2,0.0,Cubic,221,Pm-3m,0.0,False,True
mp-972156,TbY3,"Tb, Y",2,0.07852532999999795,Cubic,221,Pm-3m,0.0,True,True
mp-1540,HoTl,"Ho, Tl",2,0.0,Cubic,221,Pm-3m,0.0,False,True
mp-892,ScPt,"Pt, Sc",2,0.0,Cubic,221,Pm-3m,0.0,False,True
mp-975802,PrSb3,"Pr, Sb",2,0.07125464250000135,Cubic,221,Pm-3m,0.0,True,True
mp-1197139,PuCd11,"Cd, Pu",2,0.0,Cubic,221,Pm-3m,0.0,False,True
mp-1183629,CdBi3,"Bi, Cd",2,0.09777141750000062,Cubic,221,Pm-3m,0.0,True,True
mp-542,SrHg,"Hg, Sr",2,0.0,Cubic,221,Pm-3m,0.0,False,True
mp-1186274,Nd3Mg,"Mg, Nd",2,0.0561441162499996,Cubic,221,Pm-3m,0.0,True,True
mp-1212609,GaPd,"Ga, Pd",2,0.08591318124999958,Cubic,221,Pm-3m,0.0,True,True
mp-11563,TiRh,"Rh, Ti",2,0.0201166999999991,Cubic,221,Pm-3m,0.0,False,True
mp-11483,TmIr,"Ir, Tm",2,0.0,Cubic,221,Pm-3m,0.0,False,True
mp-232,DyRh,"Dy, Rh",2,0.0,Cubic,221,Pm-3m,0.0,False,True
mp-20939,PrPb3,"Pb, Pr",2,0.0,Cubic,221,Pm-3m,0.0,False,True
mp-1185880,MgHg3,"Hg, Mg",2,0.04419992374999815,Cubic,221,Pm-3m,0.0,True,True
mp-971957,Tm3Pb,"Pb, Tm",2,0.09444263166666289,Cubic,221,Pm-3m,0.0,True,True
mp-2064,RbF,"F, Rb",2,0.05158332500000107,Cubic,221,Pm-3m,5.905,False,False
mp-1186855,TbAl3,"Al, Tb",2,0.033113008750000006,Cubic,221,Pm-3m,0.0,True,True
mp-30343,InAg3,"Ag, In",2,0.0,Cubic,221,Pm-3m,0.0,False,True
mp-2103,CuAu3,"Au, Cu",2,0.006434499999997456,Cubic,221,Pm-3m,0.0,False,True
mp-1183624,Cd3Ni,"Cd, Ni",2,0.09107569833333073,Cubic,221,Pm-3m,0.0,True,True
mp-505534,PuB6,"B, Pu",2,0.004874788303570909,Cubic,221,Pm-3m,0.0,False,True
mp-2205,LuPd,"Lu, Pd",2,0.0,Cubic,221,Pm-3m,0.0,False,True
mp-11318,CePt3,"Ce, Pt",2,0.0,Cubic,221,Pm-3m,0.0,False,True
mp-979253,Sm3Tm,"Sm, Tm",2,0.03446721499999583,Cubic,221,Pm-3m,0.0,True,True
mp-758433,AgHg,"Ag, Hg",2,0.08535895416666506,Cubic,221,Pm-3m,0.0,True,True
mp-1636,Mn3Sb,"Mn, Sb",2,0.09241874478448153,Cubic,221,Pm-3m,0.0,False,True
mp-977573,HfH3,"H, Hf",2,0.09424659625000054,Cubic,221,Pm-3m,0.0,True,True
mp-1184768,IrRh3,"Ir, Rh",2,0.008113887500002193,Cubic,221,Pm-3m,0.0,True,True
mp-2778,HoAg,"Ag, Ho",2,0.0,Cubic,221,Pm-3m,0.0,False,True
mp-862960,PmSn3,"Pm, Sn",2,0.0,Cubic,221,Pm-3m,0.0,True,True
mp-978094,NdHo3,"Ho, Nd",2,0.04588215187500211,Cubic,221,Pm-3m,0.0,True,True
mp-21431,HoIn3,"Ho, In",2,0.0,Cubic,221,Pm-3m,0.0,False,True
mp-1038814,MgCd,"Cd, Mg",2,0.030768572500001312,Cubic,221,Pm-3m,0.0,True,True
mp-823,TiCo,"Co, Ti",2,0.0,Cubic,221,Pm-3m,0.0,False,True
mp-10015,SiOs,"Os, Si",2,0.027129491249997528,Cubic,221,Pm-3m,0.0,False,True
mp-20139,Mn3Ge,"Ge, Mn",2,0.08230690999999979,Cubic,221,Pm-3m,0.0,False,True
mp-1186100,NaAg3,"Ag, Na",2,0.07910761708333425,Cubic,221,Pm-3m,0.0,True,True
mp-1187024,Sn3Bi,"Bi, Sn",2,0.08607573875000041,Cubic,221,Pm-3m,0.0,True,True
mp-1038837,CeMg3,"Ce, Mg",2,0.09070874250000038,Cubic,221,Pm-3m,0.0,True,True
mp-1186522,Pm3Gd,"Gd, Pm",2,0.043855709374994944,Cubic,221,Pm-3m,0.0,True,True
mp-639478,SiO2,"O, Si",2,0.024659219722222403,Cubic,221,Pm-3m,5.5631,True,False
mp-973191,LiTl3,"Li, Tl",2,0.04103744249999863,Cubic,221,Pm-3m,0.0,True,True
mp-934,LiTl,"Li, Tl",2,0.0,Cubic,221,Pm-3m,0.0,False,True
mp-979419,Dy3Y,"Dy, Y",2,0.057982719583336007,Cubic,221,Pm-3m,0.0,True,True
mp-20539,ScIn3,"In, Sc",2,0.0,Cubic,221,Pm-3m,0.0,False,True
mp-581934,Pu3Ge,"Ge, Pu",2,0.0,Cubic,221,Pm-3m,0.0,True,True
mp-21172,PuPb3,"Pb, Pu",2,0.0,Cubic,221,Pm-3m,0.0,False,True
mp-1185790,Mg3Sc,"Mg, Sc",2,0.0,Cubic,221,Pm-3m,0.0,True,True
mp-2283,ZrCo,"Co, Zr",2,0.0,Cubic,221,Pm-3m,0.0,False,True
mp-2475,SmAg,"Ag, Sm",2,0.0,Cubic,221,Pm-3m,0.0,False,True
mp-861939,Ac3Sn,"Ac, Sn",2,0.0,Cubic,221,Pm-3m,0.0,True,True
mp-190,ReO3,"O, Re",2,0.0,Cubic,221,Pm-3m,0.0,False,True
mp-1186117,NiPt3,"Ni, Pt",2,0.0,Cubic,221,Pm-3m,0.0,True,True
mp-2431,ErTl3,"Er, Tl",2,0.0,Cubic,221,Pm-3m,0.0,False,True
mp-1064843,EuTl3,"Eu, Tl",2,0.0,Cubic,221,Pm-3m,0.0,False,True
mp-20298,SmIn,"In, Sm",2,0.0,Cubic,221,Pm-3m,0.0,False,True
mp-975256,Ho3Hg,"Hg, Ho",2,0.09404333499999495,Cubic,221,Pm-3m,0.0,True,True
mp-305,TiFe,"Fe, Ti",2,0.0,Cubic,221,Pm-3m,0.0,False,True
mp-2525,PrAg,"Ag, Pr",2,0.0,Cubic,221,Pm-3m,0.0,False,True
mp-985443,Ag3Hg,"Ag, Hg",2,0.03182462187499979,Cubic,221,Pm-3m,0.0,True,True
mp-972422,U3Ge,"Ge, U",2,0.0,Cubic,221,Pm-3m,0.0,True,True
mp-11571,YSn3,"Sn, Y",2,0.023755627499997267,Cubic,221,Pm-3m,0.0,False,True
mp-11460,HfTc,"Hf, Tc",2,0.0,Cubic,221,Pm-3m,0.0,False,True
mp-21177,TmIn3,"In, Tm",2,0.0,Cubic,221,Pm-3m,0.0,False,True
mp-242,SrB6,"B, Sr",2,0.0,Cubic,221,Pm-3m,0.0,False,True
mp-976784,NiAu3,"Au, Ni",2,0.08892086999999549,Cubic,221,Pm-3m,0.0,True,True
mp-985300,AcEr3,"Ac, Er",2,0.07535548687500437,Cubic,221,Pm-3m,0.0,True,True
mp-1649,Fe3Pt,"Fe, Pt",2,0.043079117500000486,Cubic,221,Pm-3m,0.0,False,True
mp-20941,UIn3,"In, U",2,0.0,Cubic,221,Pm-3m,0.0,False,True
mp-770,DyCd,"Cd, Dy",2,0.0,Cubic,221,Pm-3m,0.0,False,True
mp-10907,PuAl3,"Al, Pu",2,0.04544195062499767,Cubic,221,Pm-3m,0.0,False,True
mp-20582,LaIn,"In, La",2,0.0,Cubic,221,Pm-3m,0.0,False,True
mp-1187168,SrEu3,"Eu, Sr",2,0.07259211874999494,Cubic,221,Pm-3m,0.0,True,True
mp-515,TmTl,"Tl, Tm",2,0.0,Cubic,221,Pm-3m,0.0,False,True
mp-559,YPd3,"Pd, Y",2,0.0,Cubic,221,Pm-3m,0.0,False,True
mp-11566,ScZn,"Sc, Zn",2,0.0,Cubic,221,Pm-3m,0.0,False,True
mp-567589,DyAl3,"Al, Dy",2,0.02404262750000008,Cubic,221,Pm-3m,0.0,False,True
mp-1184168,ErBi3,"Bi, Er",2,0.09858225249999908,Cubic,221,Pm-3m,0.0,True,True
mp-862863,Pa3Te,"Pa, Te",2,0.0,Cubic,221,Pm-3m,0.0,True,True
mp-983585,Al3Zn,"Al, Zn",2,0.036298491250000176,Cubic,221,Pm-3m,0.0,True,True
mp-21765,Pd17Se15,"Pd, Se",2,0.0,Cubic,221,Pm-3m,0.0,False,True
mp-1185492,LuMg3,"Lu, Mg",2,0.012427005000001046,Cubic,221,Pm-3m,0.0,True,True
mp-1206414,Tl2F3,"F, Tl",2,0.07715447925000518,Cubic,221,Pm-3m,0.0,True,True
mp-1186120,NpCo3,"Co, Np",2,0.06966032499999741,Cubic,221,Pm-3m,0.0,True,True
mp-2399,YHg,"Hg, Y",2,0.0,Cubic,221,Pm-3m,0.0,False,True
mp-983237,Ga3Bi,"Bi, Ga",2,0.06012677187499982,Cubic,221,Pm-3m,0.0,True,True
mp-983497,Pa3Zn,"Pa, Zn",2,0.08006403833333309,Cubic,221,Pm-3m,0.0,True,True
mp-985,TmCu,"Cu, Tm",2,0.0,Cubic,221,Pm-3m,0.0,False,True
mp-2061,ThTl3,"Th, Tl",2,0.0,Cubic,221,Pm-3m,0.0,False,True
mp-1206423,NdIn,"In, Nd",2,0.0,Cubic,221,Pm-3m,0.0,True,True
mp-979423,YGa3,"Ga, Y",2,0.04963566374999928,Cubic,221,Pm-3m,0.0,True,True
mp-11517,NbRu3,"Nb, Ru",2,0.0,Cubic,221,Pm-3m,0.0,False,True
mp-1206425,Co4N,"Co, N",2,0.06959518425000155,Cubic,221,Pm-3m,0.0,True,True
mp-12594,TiIr,"Ir, Ti",2,0.08534831500000095,Cubic,221,Pm-3m,0.0,False,True
mp-862920,PmIn3,"In, Pm",2,0.0,Cubic,221,Pm-3m,0.0,True,True
mp-2165,SmZn,"Sm, Zn",2,0.0,Cubic,221,Pm-3m,0.0,False,True
mp-11521,ScNi,"Ni, Sc",2,0.0,Cubic,221,Pm-3m,0.0,False,True
mp-1187338,TbHo3,"Ho, Tb",2,0.05174249750000115,Cubic,221,Pm-3m,0.0,True,True
mp-632319,CsH,"Cs, H",2,0.016097849999999525,Cubic,221,Pm-3m,2.5693,False,False
mp-974779,NdTh3,"Nd, Th",2,0.06624425562500846,Cubic,221,Pm-3m,0.0,True,True
mp-635,ScRh3,"Rh, Sc",2,0.0,Cubic,221,Pm-3m,0.0,False,True
mp-978498,Sc3Al,"Al, Sc",2,0.05220380249999934,Cubic,221,Pm-3m,0.0,True,True
mp-372,VPt3,"Pt, V",2,0.0,Cubic,221,Pm-3m,0.0,False,True
mp-2443,DyHg,"Dy, Hg",2,0.0,Cubic,221,Pm-3m,0.0,False,True
mp-195,HoPt3,"Ho, Pt",2,0.0,Cubic,221,Pm-3m,0.0,False,True
mp-1185427,Lu3Al,"Al, Lu",2,0.014231470000002133,Cubic,221,Pm-3m,0.0,True,True
mp-1094791,Mg3Zn,"Mg, Zn",2,0.05621799365000024,Cubic,221,Pm-3m,0.28480000000000016,True,False
mp-1183974,GaBi3,"Bi, Ga",2,0.08353060312499982,Cubic,221,Pm-3m,0.0,True,True
mp-1187250,TaTi3,"Ta, Ti",2,0.09496721249999851,Cubic,221,Pm-3m,0.0,True,True
mp-1172,MgRh,"Mg, Rh",2,0.0,Cubic,221,Pm-3m,0.0,False,True
mp-1186658,PmTh3,"Pm, Th",2,0.060723348125009124,Cubic,221,Pm-3m,0.0,True,True
mp-510400,GdIr3,"Gd, Ir",2,0.0,Cubic,221,Pm-3m,0.0,False,True
mp-13496,ZrPd,"Pd, Zr",2,0.06452598250000108,Cubic,221,Pm-3m,0.0,False,True
mp-1533,Nd3Tl,"Nd, Tl",2,0.0013892741666676756,Cubic,221,Pm-3m,0.0,False,True
mp-1186300,NdEr3,"Er, Nd",2,0.05721101812500251,Cubic,221,Pm-3m,0.0,True,True
mp-1183379,BaEu3,"Ba, Eu",2,0.07858873124999555,Cubic,221,Pm-3m,0.0,True,True
mp-2077,DyMg,"Dy, Mg",2,0.0,Cubic,221,Pm-3m,0.0,False,True
mp-1183945,CsRb3,"Cs, Rb",2,0.024973896961205444,Cubic,221,Pm-3m,0.0,True,True
mp-2502,TmCd,"Cd, Tm",2,0.0,Cubic,221,Pm-3m,0.0,False,True
mp-1010953,MgNi,"Mg, Ni",2,0.04428836576388928,Cubic,221,Pm-3m,0.0,True,True
mp-12110,TaRu,"Ru, Ta",2,0.03351981000000137,Cubic,221,Pm-3m,0.0,False,True
mp-1877,HoAl3,"Al, Ho",2,0.015974716250001464,Cubic,221,Pm-3m,0.0,False,True
mp-999298,Pd3Au,"Au, Pd",2,0.0,Cubic,221,Pm-3m,0.0,True,True
mp-2121,ScAl3,"Al, Sc",2,0.0,Cubic,221,Pm-3m,0.0,False,True
mp-1183751,CoNi3,"Co, Ni",2,0.024802626250000515,Cubic,221,Pm-3m,0.0,True,True
mp-11498,MgTl,"Mg, Tl",2,0.0,Cubic,221,Pm-3m,0.0,False,True
mp-1020,TaRh3,"Rh, Ta",2,0.0,Cubic,221,Pm-3m,0.0,False,True
mp-2090,FeCo,"Co, Fe",2,0.0,Cubic,221,Pm-3m,0.0,False,True
mp-22704,YIn,"In, Y",2,0.0,Cubic,221,Pm-3m,0.0,False,True
mp-21215,InPd,"In, Pd",2,0.005904551666667146,Cubic,221,Pm-3m,0.0,False,True
mp-1187243,TaOs3,"Os, Ta",2,0.0,Cubic,221,Pm-3m,0.0,True,True
mp-30867,ScRu,"Ru, Sc",2,0.0,Cubic,221,Pm-3m,0.0,False,True
mp-20336,USn3,"Sn, U",2,0.0,Cubic,221,Pm-3m,0.0,False,True
mp-7131,PrTe,"Pr, Te",2,0.09212754000000345,Cubic,221,Pm-3m,0.0,False,True
mp-2426,LiAg,"Ag, Li",2,0.0,Cubic,221,Pm-3m,0.0,False,True
mp-2484,SmSn3,"Sm, Sn",2,0.0,Cubic,221,Pm-3m,0.0,False,True
mp-2667,CsAu,"Au, Cs",2,0.0,Cubic,221,Pm-3m,1.0232999999999999,False,False
mp-11407,GaPt3,"Ga, Pt",2,0.014427044999997918,Cubic,221,Pm-3m,0.0,False,True
mp-1183143,AlPd3,"Al, Pd",2,0.04402146750000213,Cubic,221,Pm-3m,0.0,True,True
mp-1187304,Tb3Eu,"Eu, Tb",2,0.08586378999999766,Cubic,221,Pm-3m,0.0,True,True
mp-851,ErPd,"Er, Pd",2,0.0,Cubic,221,Pm-3m,0.0,False,True
mp-977552,Be3Tc,"Be, Tc",2,0.0,Cubic,221,Pm-3m,0.0,True,True
mp-1197367,SrHg11,"Hg, Sr",2,0.05080219021825072,Cubic,221,Pm-3m,0.0,False,True
mp-1187281,Tb3Er,"Er, Tb",2,0.04297673916666511,Cubic,221,Pm-3m,0.0,True,True
mp-863737,Ho3In,"Ho, In",2,0.005633348750000877,Cubic,221,Pm-3m,0.0,True,True
mp-864794,ZnAg3,"Ag, Zn",2,0.006065487499999023,Cubic,221,Pm-3m,0.0,True,True
mp-1386,HoPb3,"Ho, Pb",2,0.0,Cubic,221,Pm-3m,0.0,False,True
mp-1186243,PmNd3,"Nd, Pm",2,0.023985774999999876,Cubic,221,Pm-3m,0.0,True,True
mp-21381,ThPb3,"Pb, Th",2,0.0,Cubic,221,Pm-3m,0.0,False,True
mp-862731,Pm3Ge,"Ge, Pm",2,0.0,Cubic,221,Pm-3m,0.0,True,True
mp-1187579,TmMg3,"Mg, Tm",2,0.015500002321431339,Cubic,221,Pm-3m,0.0,True,True
mp-1955,ErCu,"Cu, Er",2,0.0,Cubic,221,Pm-3m,0.0,False,True
mp-12753,GdAl,"Al, Gd",2,0.05970779599999787,Cubic,221,Pm-3m,0.0,False,True
mp-6996,SmB6,"B, Sm",2,0.0,Cubic,221,Pm-3m,0.0,False,True
mp-2593,AlNi3,"Al, Ni",2,0.0,Cubic,221,Pm-3m,0.0,False,True
mp-1438,ZrIr3,"Ir, Zr",2,0.0,Cubic,221,Pm-3m,0.0,False,True
mp-20920,TbIn3,"In, Tb",2,0.0,Cubic,221,Pm-3m,0.0,False,True
mp-592,TiRu,"Ru, Ti",2,0.0,Cubic,221,Pm-3m,0.0,False,True
mp-1018081,CrFe3,"Cr, Fe",2,0.050002915000000314,Cubic,221,Pm-3m,0.0,True,True
mp-331,ScAl,"Al, Sc",2,0.0,Cubic,221,Pm-3m,0.0,False,True
mp-1186489,Pm3Al,"Al, Pm",2,0.03220119749999739,Cubic,221,Pm-3m,0.0,True,True
mp-11568,SmTl,"Sm, Tl",2,0.005274790000000085,Cubic,221,Pm-3m,0.0,False,True
mp-972185,Tl3Hg,"Hg, Tl",2,0.027282111666664832,Cubic,221,Pm-3m,0.0,True,True
mp-1186534,PmAs3,"As, Pm",2,0.0,Cubic,221,Pm-3m,0.0,True,True
mp-20821,NpGa3,"Ga, Np",2,0.0,Cubic,221,Pm-3m,0.0,False,True
mp-980014,TmTh3,"Th, Tm",2,0.04285810250001276,Cubic,221,Pm-3m,0.0,True,True
mp-1186640,PmSm3,"Pm, Sm",2,0.02828331312499799,Cubic,221,Pm-3m,0.0,True,True
mp-987,ZnCu,"Cu, Zn",2,0.0,Cubic,221,Pm-3m,0.0,False,True
mp-1184733,GdTh3,"Gd, Th",2,0.06722370500000352,Cubic,221,Pm-3m,0.0,True,True
mp-1185846,MgAu3,"Au, Mg",2,0.016649699499997617,Cubic,221,Pm-3m,0.0,True,True
mp-922,CoPt3,"Co, Pt",2,0.0,Cubic,221,Pm-3m,0.0,False,True
mp-865802,LuRh3,"Lu, Rh",2,0.0,Cubic,221,Pm-3m,0.0,True,True
mp-23303,RbBr,"Br, Rb",2,0.03156426500000009,Cubic,221,Pm-3m,3.9211,False,False
mp-867238,SmPb3,"Pb, Sm",2,0.0,Cubic,221,Pm-3m,0.0,True,True
mp-1186601,PmGd3,"Gd, Pm",2,0.08980309062500424,Cubic,221,Pm-3m,0.0,True,True
mp-377,LuRh,"Lu, Rh",2,0.0,Cubic,221,Pm-3m,0.0,False,True
mp-2808,ZrRh,"Rh, Zr",2,0.08393397999999763,Cubic,221,Pm-3m,0.0,False,True
mp-11372,ErSn3,"Er, Sn",2,0.030884268333331022,Cubic,221,Pm-3m,0.0,False,True
mp-20214,UGa3,"Ga, U",2,0.0,Cubic,221,Pm-3m,0.0,False,True
mp-435,ThSn3,"Sn, Th",2,0.01882185624999977,Cubic,221,Pm-3m,0.0,False,True
mp-1094969,MgGa3,"Ga, Mg",2,0.020106949687500375,Cubic,221,Pm-3m,0.0,True,True
mp-21263,PuSb,"Pu, Sb",2,0.06501296974999526,Cubic,221,Pm-3m,0.0,False,True
mp-11313,ZrCd3,"Cd, Zr",2,0.0,Cubic,221,Pm-3m,0.0,True,True
mp-1094889,LiMg,"Li, Mg",2,0.006518542499999835,Cubic,221,Pm-3m,0.0,True,True
mp-862862,Pa3Sb,"Pa, Sb",2,0.0,Cubic,221,Pm-3m,0.0,True,True
mp-1684,ZnAu,"Au, Zn",2,0.0,Cubic,221,Pm-3m,0.0,False,True
mp-11952,KHg11,"Hg, K",2,0.0,Cubic,221,Pm-3m,0.0,False,True
mp-1183062,AcDy3,"Ac, Dy",2,0.07628107687499863,Cubic,221,Pm-3m,0.0,True,True
mp-20387,EuSn3,"Eu, Sn",2,0.0,Cubic,221,Pm-3m,0.0,False,True
mp-12763,TbB6,"B, Tb",2,0.008686888839287477,Cubic,221,Pm-3m,0.0,False,True
mp-721,TbCd,"Cd, Tb",2,0.0,Cubic,221,Pm-3m,0.0,False,True
mp-11488,LaTl,"La, Tl",2,0.0,Cubic,221,Pm-3m,0.0,False,True
mp-183,CeCd,"Cd, Ce",2,0.08205001624999753,Cubic,221,Pm-3m,0.0,False,True
mp-20360,PuIn3,"In, Pu",2,0.0,Cubic,221,Pm-3m,0.0,False,True
mp-542569,AlRu,"Al, Ru",2,0.0,Cubic,221,Pm-3m,0.0,False,True
mp-10902,PrAl,"Al, Pr",2,0.07699401249999838,Cubic,221,Pm-3m,0.0,False,True
mp-11522,Ni3Sn,"Ni, Sn",2,0.0,Cubic,221,Pm-3m,0.0,False,True
mp-11953,RbHg11,"Hg, Rb",2,0.0,Cubic,221,Pm-3m,0.0,False,True
mp-862820,PaSi3,"Pa, Si",2,0.0,Cubic,221,Pm-3m,0.0,True,True
mp-1094669,MgSn,"Mg, Sn",2,0.0559883787500004,Cubic,221,Pm-3m,0.0,True,True
mp-23302,RbI,"I, Rb",2,0.029722924999997957,Cubic,221,Pm-3m,3.3463000000000003,False,False
mp-20997,InNi,"In, Ni",2,0.09218754000000118,Cubic,221,Pm-3m,0.0,False,True
mp-1185440,Lu3Cd,"Cd, Lu",2,0.07151996249999826,Cubic,221,Pm-3m,0.0,True,True
mp-20603,CeTl3,"Ce, Tl",2,0.0,Cubic,221,Pm-3m,0.0,False,True
mp-1183969,Cu3Sb,"Cu, Sb",2,0.06653869375000099,Cubic,221,Pm-3m,0.0,True,True
mp-1186902,Re3Ir,"Ir, Re",2,0.0,Cubic,221,Pm-3m,0.0,True,True
mp-20365,NpGe3,"Ge, Np",2,0.0,Cubic,221,Pm-3m,0.0,False,True
mp-1742,GdRh,"Gd, Rh",2,0.0,Cubic,221,Pm-3m,0.0,False,True
mp-11484,ZrIr,"Ir, Zr",2,0.08134236125000172,Cubic,221,Pm-3m,0.0,False,True
mp-982773,Na3Tl,"Na, Tl",2,0.022761539062500447,Cubic,221,Pm-3m,0.0,True,True
mp-978271,Mg3Al,"Al, Mg",2,0.027507425520833628,Cubic,221,Pm-3m,0.0,True,True
mp-1183161,Al3Cu,"Al, Cu",2,0.0962458349999995,Cubic,221,Pm-3m,0.0,True,True
mp-1094792,Mg3Zr,"Mg, Zr",2,0.05878296624999946,Cubic,221,Pm-3m,0.0,True,True
mp-11358,TaCo3,"Co, Ta",2,0.0,Cubic,221,Pm-3m,0.0,False,True
mp-2825,ErPd3,"Er, Pd",2,0.0,Cubic,221,Pm-3m,0.0,False,True
mp-1187699,Tm3In,"In, Tm",2,0.014337195000003078,Cubic,221,Pm-3m,0.0,True,True
mp-1076,KB6,"B, K",2,0.0,Cubic,221,Pm-3m,0.0,False,True
mp-986,CeZn,"Ce, Zn",2,0.02931775500000189,Cubic,221,Pm-3m,0.0,False,True
mp-1104,LaMg,"La, Mg",2,0.005696517500002329,Cubic,221,Pm-3m,0.0,False,True
mp-1199,HoMg,"Ho, Mg",2,0.0,Cubic,221,Pm-3m,0.0,False,True
mp-865786,CrPd3,"Cr, Pd",2,0.0,Cubic,221,Pm-3m,0.0,True,True
mp-649,FePt3,"Fe, Pt",2,0.0,Cubic,221,Pm-3m,0.0,False,True
mp-2375,NpPd3,"Np, Pd",2,0.008822396250003806,Cubic,221,Pm-3m,0.0,False,True
mp-1044,UIr3,"Ir, U",2,0.0,Cubic,221,Pm-3m,0.0,False,True
mp-1187151,SrCa3,"Ca, Sr",2,0.03131187749999853,Cubic,221,Pm-3m,0.0,True,True
mp-1183489,Ca3Sn,"Ca, Sn",2,0.04742390062499924,Cubic,221,Pm-3m,0.0,True,True
mp-30353,AgPt3,"Ag, Pt",2,0.07138850416666287,Cubic,221,Pm-3m,0.0,False,True
mp-1184453,Gd3Er,"Er, Gd",2,0.07291820166666696,Cubic,221,Pm-3m,0.0,True,True
mp-1183889,Ce3Gd,"Ce, Gd",2,0.08872284875000247,Cubic,221,Pm-3m,0.0,True,True
mp-316,MnV,"Mn, V",2,0.0,Cubic,221,Pm-3m,0.0,False,True
mp-571352,TmB6,"B, Tm",2,0.07931735776785587,Cubic,221,Pm-3m,0.0,False,True
mp-11573,TiTc,"Tc, Ti",2,0.0,Cubic,221,Pm-3m,0.0,False,True
mp-10637,ThSb,"Sb, Th",2,0.08840687000000713,Cubic,221,Pm-3m,0.0,False,True
mp-861931,LiPt3,"Li, Pt",2,0.0,Cubic,221,Pm-3m,0.0,True,True
mp-973292,MnBe3,"Be, Mn",2,0.010523769750001577,Cubic,221,Pm-3m,0.0,True,True
mp-1723,UAl3,"Al, U",2,0.0,Cubic,221,Pm-3m,0.0,False,True
mp-11496,LuZn,"Lu, Zn",2,0.0,Cubic,221,Pm-3m,0.0,False,True
mp-2381,ErRh,"Er, Rh",2,0.0,Cubic,221,Pm-3m,0.0,False,True
mp-1186490,Pm3Dy,"Dy, Pm",2,0.03313076562499617,Cubic,221,Pm-3m,0.0,True,True
mp-975664,NdGe3,"Ge, Nd",2,0.09500349937500019,Cubic,221,Pm-3m,0.0,True,True
mp-1082,VIr3,"Ir, V",2,0.015957168749999084,Cubic,221,Pm-3m,0.0,False,True
mp-1203399,SmCd11,"Cd, Sm",2,0.00800988143939918,Cubic,221,Pm-3m,0.0,False,True
mp-1185300,LiAg3,"Ag, Li",2,0.00875260000000111,Cubic,221,Pm-3m,0.0,True,True
mp-1187452,ThPt3,"Pt, Th",2,0.01585731875000107,Cubic,221,Pm-3m,0.0,True,True
mp-30777,MgPt3,"Mg, Pt",2,0.0,Cubic,221,Pm-3m,0.0,True,True
mp-11388,GaIr,"Ga, Ir",2,0.0,Cubic,221,Pm-3m,0.0,False,True