material_id,formula,elements,num_elements,energy_above_hull,crystal_system,spacegroup_number,spacegroup_symbol,band_gap,theoretical,is_metal
mp-12723,CaAu,"Au, Ca",2,0.0,Orthorhombic,63,Cmcm,0.0,False,True
mp-6914,CaGa,"Ca, Ga",2,0.0,Orthorhombic,63,Cmcm,0.0,False,True
mp-31509,BaIn,"Ba, In",2,0.0,Orthorhombic,63,Cmcm,0.0,False,True
mp-1079902,SnH4,"H, Sn",2,0.050274790999998764,Orthorhombic,63,Cmcm,0.0,True,True
mp-1189230,Ca3Tl5,"Ca, Tl",2,0.0,Orthorhombic,63,Cmcm,0.0,False,True
mp-1039393,CaMg2,"Ca, Mg",2,0.06682238333333235,Orthorhombic,63,Cmcm,0.0,True,True
mp-1007692,HfPd,"Hf, Pd",2,0.0,Orthorhombic,63,Cmcm,0.0,True,True
mp-1039421,Ca2Mg,"Ca, Mg",2,0.08892180749999956,Orthorhombic,63,Cmcm,0.0,True,True
mp-255,NaHg,"Hg, Na",2,0.0,Orthorhombic,63,Cmcm,0.0,False,True
mp-1208530,Zn74Pd21,"Pd, Zn",2,0.0,Orthorhombic,63,Cmcm,0.0,True,True
mp-1232339,LiC12,"C, Li",2,0.0007420350000000298,Orthorhombic,63,Cmcm,0.0,True,True
mp-1198760,Na5Sn13,"Na, Sn",2,0.034130043611110494,Orthorhombic,63,Cmcm,0.0,False,True
mp-1086673,DyTe3,"Dy, Te",2,0.0009534662500030322,Orthorhombic,63,Cmcm,0.0,False,True
mp-11243,ErAu,"Au, Er",2,0.0,Orthorhombic,63,Cmcm,0.0,False,True
mp-1103932,Dy2Te5,"Dy, Te",2,0.06100793571428653,Orthorhombic,63,Cmcm,0.0,False,True
mp-1065793,PuPt,"Pt, Pu",2,0.0,Orthorhombic,63,Cmcm,0.0,False,True
mp-1189484,Eu3Ge5,"Eu, Ge",2,0.0,Orthorhombic,63,Cmcm,0.0,False,True
mp-1077102,TmSn2,"Sn, Tm",2,0.0,Orthorhombic,63,Cmcm,0.0,False,True
mp-1387551,Y2Mg,"Mg, Y",2,0.03677812000000191,Orthorhombic,63,Cmcm,0.0,True,True
mp-999291,PrPd,"Pd, Pr",2,0.0,Orthorhombic,63,Cmcm,0.0,False,True
mp-1094616,MgGa2,"Ga, Mg",2,0.06969481666666644,Orthorhombic,63,Cmcm,0.0,True,True
mp-1094763,MgCd2,"Cd, Mg",2,0.00749780722222293,Orthorhombic,63,Cmcm,0.0,True,True
mp-2620,DySi,"Dy, Si",2,0.0031764400000007242,Orthorhombic,63,Cmcm,0.0,False,True
mp-1104563,MnGa6,"Ga, Mn",2,0.09716602642857275,Orthorhombic,63,Cmcm,0.0,False,True
mp-1104212,La2Te5,"La, Te",2,0.03057410946428707,Orthorhombic,63,Cmcm,0.0,False,True
mp-1185822,MgAg2,"Ag, Mg",2,0.011627834166669349,Orthorhombic,63,Cmcm,0.0,True,True
mp-9971,YGe,"Ge, Y",2,0.0,Orthorhombic,63,Cmcm,0.0,False,True
mp-1188109,Ho3In5,"Ho, In",2,0.0,Orthorhombic,63,Cmcm,0.0,False,True
mp-1080793,PuTe3,"Pu, Te",2,0.0,Orthorhombic,63,Cmcm,0.0,False,True
mp-16342,HoGe,"Ge, Ho",2,0.0,Orthorhombic,63,Cmcm,0.0,False,True
mp-864941,MgSc2,"Mg, Sc",2,0.0,Orthorhombic,63,Cmcm,0.0,True,True
mp-1205322,CaH2,"Ca, H",2,0.056200145000000035,Orthorhombic,63,Cmcm,0.6541000000000001,False,False
mp-1007691,HfPt,"Hf, Pt",2,0.0,Orthorhombic,63,Cmcm,0.0,False,True
mp-1016106,HfZn16,"Hf, Zn",2,0.0,Orthorhombic,63,Cmcm,0.0,True,True
mp-1094170,La2Mg,"La, Mg",2,0.09954270666666742,Orthorhombic,63,Cmcm,0.0,True,True
mp-1188947,Nd3In5,"In, Nd",2,0.0,Orthorhombic,63,Cmcm,0.0,False,True
mp-1018117,CeRh,"Ce, Rh",2,0.0,Orthorhombic,63,Cmcm,0.0,False,True
mp-15671,Re3B,"B, Re",2,0.0,Orthorhombic,63,Cmcm,0.0,False,True
mp-1185940,MgPb2,"Mg, Pb",2,0.04891857833333413,Orthorhombic,63,Cmcm,0.0,True,True
mp-1078795,TmGe3,"Ge, Tm",2,0.017528419999998768,Orthorhombic,63,Cmcm,0.0,False,True
mp-1094593,LiMg2,"Li, Mg",2,0.027506143333333455,Orthorhombic,63,Cmcm,0.0,True,True
mp-1119,Nd2Te5,"Nd, Te",2,0.0,Orthorhombic,63,Cmcm,0.0,False,True
mp-1104400,NaSi6,"Na, Si",2,0.06209945874999789,Orthorhombic,63,Cmcm,0.0,False,True
mp-13450,HfSb,"Hf, Sb",2,0.0,Orthorhombic,63,Cmcm,0.0,False,True
mp-30564,ThCo,"Co, Th",2,0.0,Orthorhombic,63,Cmcm,0.0,False,True
mp-12754,ThPt,"Pt, Th",2,0.0,Orthorhombic,63,Cmcm,0.0,False,True
mp-600063,SiO2,"O, Si",2,0.017435030138889474,Orthorhombic,63,Cmcm,5.6966,True,False
mp-982070,VIr,"Ir, V",2,0.011177717500004292,Orthorhombic,63,Cmcm,0.0,True,True
mp-2264,ErGe,"Er, Ge",2,0.0,Orthorhombic,63,Cmcm,0.0,False,True
mp-973906,LuGe2,"Ge, Lu",2,0.0,Orthorhombic,63,Cmcm,0.0,False,True
mp-10212,ScGe2,"Ge, Sc",2,0.019243668333334796,Orthorhombic,63,Cmcm,0.0,False,True
mp-11302,HoCd3,"Cd, Ho",2,0.0,Orthorhombic,63,Cmcm,0.0,False,True
mp-560973,SiO2,"O, Si",2,0.03480365000000063,Orthorhombic,63,Cmcm,5.4387,False,False
mp-1018087,CeAu,"Au, Ce",2,0.015425868750000404,Orthorhombic,63,Cmcm,0.0,False,True
mp-504781,NpI3,"I, Np",2,0.0,Orthorhombic,63,Cmcm,0.0,False,True
mp-1189917,Nd3Tl5,"Nd, Tl",2,0.0,Orthorhombic,63,Cmcm,0.0,False,True
mp-9970,ScGe,"Ge, Sc",2,0.0,Orthorhombic,63,Cmcm,0.0,False,True
mp-1080276,Cs2Se,"Cs, Se",2,0.0759031433333317,Orthorhombic,63,Cmcm,1.5571,True,False
mp-18680,Tm8S11,"S, Tm",2,0.0002181284210500678,Orthorhombic,63,Cmcm,0.0,False,True
mp-1008505,BaPd,"Ba, Pd",2,0.005573382499999724,Orthorhombic,63,Cmcm,0.026799999999999713,False,False
mp-999177,SmGa,"Ga, Sm",2,0.0,Orthorhombic,63,Cmcm,0.0,False,True
mp-1018115,PbS,"Pb, S",2,0.038505175000000946,Orthorhombic,63,Cmcm,1.3091999999999997,False,False
mp-2383052,WO3,"O, W",2,0.0005129140624990924,Orthorhombic,63,Cmcm,1.2701,True,False
mp-1078955,NaTl,"Na, Tl",2,0.04593826749999863,Orthorhombic,63,Cmcm,0.0,False,True
mp-849537,V6O11,"O, V",2,0.07403910242647171,Orthorhombic,63,Cmcm,0.2139000000000002,True,False
mp-1094658,Mg2Ga,"Ga, Mg",2,0.09757622444444403,Orthorhombic,63,Cmcm,0.0,True,True
mp-570403,TbCd3,"Cd, Tb",2,0.0,Orthorhombic,63,Cmcm,0.0,False,True
mp-1094437,Mg2Zn,"Mg, Zn",2,0.059813491533333485,Orthorhombic,63,Cmcm,0.0,True,True
mp-1212407,HfBi,"Bi, Hf",2,0.0,Orthorhombic,63,Cmcm,0.0,True,True
mp-680682,K3Ga13,"Ga, K",2,0.0,Orthorhombic,63,Cmcm,0.0,False,True
mp-1064719,LaNi,"La, Ni",2,0.0,Orthorhombic,63,Cmcm,0.0,False,True
mp-23202,InI,"I, In",2,0.0,Orthorhombic,63,Cmcm,1.3412000000000002,False,False
mp-1077466,CaBi2,"Bi, Ca",2,0.0,Orthorhombic,63,Cmcm,0.0,False,True
mp-655448,Dy3Ge4,"Dy, Ge",2,0.0,Orthorhombic,63,Cmcm,0.0,False,True
mp-12351,PrTe3,"Pr, Te",2,0.0,Orthorhombic,63,Cmcm,0.0,False,True
mp-640041,NbZn16,"Nb, Zn",2,0.0,Orthorhombic,63,Cmcm,0.0,False,True
mp-1018073,HoGa,"Ga, Ho",2,0.0,Orthorhombic,63,Cmcm,0.0,False,True
mp-740,NdTe3,"Nd, Te",2,0.0,Orthorhombic,63,Cmcm,0.0,False,True
mp-1097041,IrO3,"Ir, O",2,0.0,Orthorhombic,63,Cmcm,0.0,True,True
mp-16528,Al6Re,"Al, Re",2,0.00833126496138803,Orthorhombic,63,Cmcm,0.0,False,True
mp-13683,HfGe2,"Ge, Hf",2,0.0,Orthorhombic,63,Cmcm,0.0,False,True
mp-1106034,Th3Tl5,"Th, Tl",2,0.011813892708332219,Orthorhombic,63,Cmcm,0.0,False,True
mp-31502,ScCd7,"Cd, Sc",2,0.0,Orthorhombic,63,Cmcm,0.0,False,True
mp-249,HfAl,"Al, Hf",2,0.01635615999999729,Orthorhombic,63,Cmcm,0.0,False,True
mp-30613,ErSn2,"Er, Sn",2,0.0,Orthorhombic,63,Cmcm,0.0,False,True
mp-1080021,Nb2B3,"B, Nb",2,0.0,Orthorhombic,63,Cmcm,0.0,False,True
mp-20021,DySn2,"Dy, Sn",2,0.0,Orthorhombic,63,Cmcm,0.0,False,True
mp-1104531,Sm2Te5,"Sm, Te",2,0.04131826392856652,Orthorhombic,63,Cmcm,0.0,False,True
mp-555599,CuS,"Cu, S",2,0.0,Orthorhombic,63,Cmcm,0.0,False,True
mp-1105835,Y3In5,"In, Y",2,0.0,Orthorhombic,63,Cmcm,0.0,False,True
mp-1008492,BrCl,"Br, Cl",2,0.0006782575000001678,Orthorhombic,63,Cmcm,1.8129,True,False
mp-1179094,SrH2,"H, Sr",2,0.04413269916666618,Orthorhombic,63,Cmcm,1.2783,False,False
mp-1069,HfSi2,"Hf, Si",2,0.011539529166668672,Orthorhombic,63,Cmcm,0.0,False,True
mp-1094275,MgTi2,"Mg, Ti",2,0.08825148944444283,Orthorhombic,63,Cmcm,0.0,True,True
mp-513,ErGe3,"Er, Ge",2,0.005653073333333758,Orthorhombic,63,Cmcm,0.0,False,True
mp-1189084,Ce3Sn5,"Ce, Sn",2,0.0012506267499983181,Orthorhombic,63,Cmcm,0.0,False,True
mp-13037,TmGe2,"Ge, Tm",2,0.0,Orthorhombic,63,Cmcm,0.0,False,True
mp-27978,PuI3,"I, Pu",2,0.0,Orthorhombic,63,Cmcm,0.0,False,True
mp-776658,BaO,"Ba, O",2,0.01091161937500118,Orthorhombic,63,Cmcm,2.0868,True,False
mp-1094422,Mg2Zn,"Mg, Zn",2,0.03655034320000028,Orthorhombic,63,Cmcm,0.0,True,True
mp-999143,SrPd,"Pd, Sr",2,0.0,Orthorhombic,63,Cmcm,0.0,False,True
mp-796276,MoO3,"Mo, O",2,0.05301288437499885,Orthorhombic,63,Cmcm,0.4534,False,False
mp-1094281,Sr2Mg,"Mg, Sr",2,0.02683906250000012,Orthorhombic,63,Cmcm,0.0,True,True
mp-981211,ZnIn3,"In, Zn",2,0.09933025375000071,Orthorhombic,63,Cmcm,0.0,True,True
mp-556,ZrNi,"Ni, Zr",2,0.0,Orthorhombic,63,Cmcm,0.0,False,True
mp-1039255,Mg2Cd,"Cd, Mg",2,0.034912056944444325,Orthorhombic,63,Cmcm,0.0,True,True
mp-1104514,Lu3Ge4,"Ge, Lu",2,0.0,Orthorhombic,63,Cmcm,0.0,False,True
mp-30933,ZrBi,"Bi, Zr",2,0.0,Orthorhombic,63,Cmcm,0.0,False,True
mp-31380,SmPd,"Pd, Sm",2,0.0,Orthorhombic,63,Cmcm,0.0,False,True
mp-2349,YCd3,"Cd, Y",2,0.0,Orthorhombic,63,Cmcm,0.0,False,True
mp-1071567,GdSn2,"Gd, Sn",2,0.0,Orthorhombic,63,Cmcm,0.0,False,True
mp-30619,Zr3Co,"Co, Zr",2,0.017004411249999407,Orthorhombic,63,Cmcm,0.0,False,True
mp-1087512,TmTe3,"Te, Tm",2,0.0393950631249993,Orthorhombic,63,Cmcm,0.0,False,True
mp-600029,SiO2,"O, Si",2,0.018071008333333083,Orthorhombic,63,Cmcm,5.4247000000000005,True,False
mp-1072655,ZrCu2,"Cu, Zr",2,0.04563081384615497,Orthorhombic,63,Cmcm,0.0,True,True
mp-30840,Ti2Pd3,"Pd, Ti",2,0.0,Orthorhombic,63,Cmcm,0.0,False,True
mp-7083,LaSi,"La, Si",2,0.0,Orthorhombic,63,Cmcm,0.0,False,True
mp-542388,Lu7Te,"Lu, Te",2,0.007582340208331928,Orthorhombic,63,Cmcm,0.0,False,True
mp-1185823,MgAg2,"Ag, Mg",2,0.02966171083333302,Orthorhombic,63,Cmcm,0.0,True,True
mp-976378,La3Sn4,"La, Sn",2,0.0,Orthorhombic,63,Cmcm,0.0,False,True
mp-2430,ZrGe2,"Ge, Zr",2,0.0,Orthorhombic,63,Cmcm,0.0,False,True
mp-570001,Al6Fe,"Al, Fe",2,0.0025397078571423037,Orthorhombic,63,Cmcm,0.0,False,True
mp-1038882,MgCd2,"Cd, Mg",2,0.03456027388888927,Orthorhombic,63,Cmcm,0.0,True,True
mp-1039382,CaMg2,"Ca, Mg",2,0.07364582999999891,Orthorhombic,63,Cmcm,0.0,True,True
mp-1186483,Pm2Mg,"Mg, Pm",2,0.013122390833330666,Orthorhombic,63,Cmcm,0.0,True,True
mp-999335,NdRh,"Nd, Rh",2,0.0,Orthorhombic,63,Cmcm,0.0,False,True
mp-1008487,BW,"B, W",2,0.014054896250002002,Orthorhombic,63,Cmcm,0.0,False,True
mp-1188539,Sr3Tl5,"Sr, Tl",2,0.008633411249995504,Orthorhombic,63,Cmcm,0.0,False,True
mp-985805,AlAg2,"Ag, Al",2,0.007656157999999635,Orthorhombic,63,Cmcm,0.0,True,True
mp-1183246,AlH3,"Al, H",2,0.004248899583333632,Orthorhombic,63,Cmcm,3.0448,False,False
mp-560920,SiO2,"O, Si",2,0.01160585270833181,Orthorhombic,63,Cmcm,5.613300000000001,False,False
mp-18636,Ba3Sn5,"Ba, Sn",2,0.0,Orthorhombic,63,Cmcm,0.0,False,True
mp-1183085,Ac2Mg,"Ac, Mg",2,0.03304997416666344,Orthorhombic,63,Cmcm,0.0,True,True
mp-1185916,MgIn2,"In, Mg",2,0.012865184629629933,Orthorhombic,63,Cmcm,0.0,True,True
mp-12607,PrPt,"Pr, Pt",2,0.001958481249999977,Orthorhombic,63,Cmcm,0.0,False,True
mp-1094424,Y2Mg,"Mg, Y",2,0.09723579000000182,Orthorhombic,63,Cmcm,0.0,True,True
mp-9399,SmTe3,"Sm, Te",2,0.0,Orthorhombic,63,Cmcm,0.0,False,True
mp-639724,SiO2,"O, Si",2,0.020764634097224288,Orthorhombic,63,Cmcm,5.6202000000000005,True,False
mp-571486,CuSe,"Cu, Se",2,0.0,Orthorhombic,63,Cmcm,0.0,False,True
mp-11411,ScGa,"Ga, Sc",2,0.0,Orthorhombic,63,Cmcm,0.0,False,True
mp-21188,CeNi,"Ce, Ni",2,0.0,Orthorhombic,63,Cmcm,0.0,False,True
mp-1195862,Cu3Sn,"Cu, Sn",2,0.026856783000001272,Orthorhombic,63,Cmcm,0.0,True,True
mp-27488,Ta3N5,"N, Ta",2,0.0,Orthorhombic,63,Cmcm,1.2140999999999997,False,False
mp-21245,CePt,"Ce, Pt",2,0.0,Orthorhombic,63,Cmcm,0.0,False,True
mp-29141,Re3Ge7,"Ge, Re",2,0.012616640750003683,Orthorhombic,63,Cmcm,0.0,False,True
mp-1207757,Y3Tl5,"Tl, Y",2,0.0,Orthorhombic,63,Cmcm,0.0,False,True
mp-863701,Ho2Mg,"Ho, Mg",2,0.008869503333337025,Orthorhombic,63,Cmcm,0.0,True,True
mp-865078,Gd2Mg,"Gd, Mg",2,0.030073251666667744,Orthorhombic,63,Cmcm,0.0,True,True
mp-1065301,TmGa,"Ga, Tm",2,0.0,Orthorhombic,63,Cmcm,0.0,False,True
mp-1212891,Eu3Sn5,"Eu, Sn",2,0.0,Orthorhombic,63,Cmcm,0.0,True,True
mp-8057,Ti3O5,"O, Ti",2,0.006172400781251142,Orthorhombic,63,Cmcm,0.0,False,True
mp-22231,UTe3,"Te, U",2,0.0,Orthorhombic,63,Cmcm,0.0,False,True
mp-540782,V4As3,"As, V",2,0.00857019410714166,Orthorhombic,63,Cmcm,0.0,False,True
mp-1084830,LaGe,"Ge, La",2,0.0,Orthorhombic,63,Cmcm,0.0,False,True
mp-1072922,TbSn2,"Sn, Tb",2,0.0,Orthorhombic,63,Cmcm,0.0,False,True
mp-2499,BaSi,"Ba, Si",2,0.0,Orthorhombic,63,Cmcm,0.0,False,True
mp-567833,EuSn,"Eu, Sn",2,0.0,Orthorhombic,63,Cmcm,0.0,False,True
mp-1043381,Sb2O5,"O, Sb",2,0.0,Orthorhombic,63,Cmcm,0.3842000000000003,True,False
mp-11427,GdPd,"Gd, Pd",2,0.0,Orthorhombic,63,Cmcm,0.0,False,True
mp-560941,SiO2,"O, Si",2,0.011246451041666106,Orthorhombic,63,Cmcm,5.7844999999999995,False,False
mp-1184542,Eu3Ga5,"Eu, Ga",2,0.0,Orthorhombic,63,Cmcm,0.0,True,True
mp-20353,GdGa,"Ga, Gd",2,0.0,Orthorhombic,63,Cmcm,0.0,False,True
mp-560826,SiO2,"O, Si",2,0.01783695416666653,Orthorhombic,63,Cmcm,5.4292,False,False
mp-19937,NpSi,"Np, Si",2,0.034403734062500746,Orthorhombic,63,Cmcm,0.0,False,True
mp-570934,NdPt,"Nd, Pt",2,0.003308268749997012,Orthorhombic,63,Cmcm,0.0,False,True
mp-864888,Dy2Mg,"Dy, Mg",2,0.010259307777780169,Orthorhombic,63,Cmcm,0.0,True,True
mp-1094697,Mg2Cd,"Cd, Mg",2,0.0320263519444437,Orthorhombic,63,Cmcm,0.0,True,True
mp-1018077,ErGa,"Er, Ga",2,0.0,Orthorhombic,63,Cmcm,0.0,False,True
mp-1007918,DyAu,"Au, Dy",2,0.0,Orthorhombic,63,Cmcm,0.0,False,True
mp-1007922,CuI,"Cu, I",2,0.05809090250000182,Orthorhombic,63,Cmcm,1.3599,False,False
mp-11404,PrGa,"Ga, Pr",2,0.0,Orthorhombic,63,Cmcm,0.0,False,True
mp-1080094,SrHg3,"Hg, Sr",2,0.004651952499999279,Orthorhombic,63,Cmcm,0.0,True,True
mp-23293,TbCl3,"Cl, Tb",2,0.0,Orthorhombic,63,Cmcm,3.7966,False,False
mp-18192,Sr3Sn5,"Sn, Sr",2,0.0,Orthorhombic,63,Cmcm,0.0,False,True
mp-1470,Nb12O29,"Nb, O",2,0.0,Orthorhombic,63,Cmcm,0.0,False,True
mp-1038840,Ca2Mg,"Ca, Mg",2,0.046504110833332835,Orthorhombic,63,Cmcm,0.0,True,True
mp-1096967,FeF3,"F, Fe",2,0.011904239583333975,Orthorhombic,63,Cmcm,3.0128,True,False
mp-1002107,LaRh,"La, Rh",2,0.0,Orthorhombic,63,Cmcm,0.08119999999999994,False,False
mp-1094586,Li2Mg,"Li, Mg",2,0.010662397777777333,Orthorhombic,63,Cmcm,0.0,True,True
mp-1188416,Tb3In5,"In, Tb",2,0.0,Orthorhombic,63,Cmcm,0.0,False,True
mp-636284,WO3,"O, W",2,0.008046851562498958,Orthorhombic,63,Cmcm,1.6648,True,False
mp-1698,SrSn,"Sn, Sr",2,0.0,Orthorhombic,63,Cmcm,0.0,False,True
mp-1104010,Cs2Te5,"Cs, Te",2,0.0,Orthorhombic,63,Cmcm,0.3998000000000004,False,False
mp-20439,CeAl,"Al, Ce",2,0.00431269649999777,Orthorhombic,63,Cmcm,0.0,False,True
mp-1094195,La2Mg,"La, Mg",2,0.06450296166666636,Orthorhombic,63,Cmcm,0.0,True,True
mp-1002115,LaPd,"La, Pd",2,0.0,Orthorhombic,63,Cmcm,0.0,False,True
mp-1001613,LuGa,"Ga, Lu",2,0.0,Orthorhombic,63,Cmcm,0.0,False,True
mp-1193435,Na9Sn4,"Na, Sn",2,2.691038461222206e-05,Orthorhombic,63,Cmcm,0.0,False,True
mp-11322,ZrSi,"Si, Zr",2,0.0,Orthorhombic,63,Cmcm,0.0,False,True
mp-1066136,YPd,"Pd, Y",2,0.0,Orthorhombic,63,Cmcm,0.0,False,True
mp-862915,Er2Mg,"Er, Mg",2,0.0005136749999978818,Orthorhombic,63,Cmcm,0.0,True,True
mp-9969,ScSi,"Sc, Si",2,0.0,Orthorhombic,63,Cmcm,0.0,False,True
mp-2168,SnSe,"Se, Sn",2,0.02414671374999955,Orthorhombic,63,Cmcm,0.48519999999999985,False,False
mp-20122,DyGe,"Dy, Ge",2,0.0,Orthorhombic,63,Cmcm,0.0,False,True
mp-1007881,FeB,"B, Fe",2,0.0,Orthorhombic,63,Cmcm,0.0,False,True
mp-11306,LuCd3,"Cd, Lu",2,0.0,Orthorhombic,63,Cmcm,0.0,False,True
mp-1018056,HfNi,"Hf, Ni",2,0.0,Orthorhombic,63,Cmcm,0.0,False,True
mp-1094613,Mg2Ga,"Ga, Mg",2,0.08528234611111074,Orthorhombic,63,Cmcm,0.0,True,True
mp-1052892,VI3,"I, V",2,0.004893821250000485,Orthorhombic,63,Cmcm,0.0,True,True
mp-1094671,Mg2Ga,"Ga, Mg",2,0.06218155944444392,Orthorhombic,63,Cmcm,0.0,True,True
mp-1094483,MgZn2,"Mg, Zn",2,0.0733274216666655,Orthorhombic,63,Cmcm,0.0,True,True
mp-36216,Ag2S,"Ag, S",2,0.0,Orthorhombic,63,Cmcm,1.2959,True,False
mp-1065995,ZrPt,"Pt, Zr",2,0.0,Orthorhombic,63,Cmcm,0.0,False,True
mp-1007666,HoAu,"Au, Ho",2,0.0,Orthorhombic,63,Cmcm,0.0,False,True
mp-1563,CaSi,"Ca, Si",2,0.0,Orthorhombic,63,Cmcm,0.0,False,True
mp-1094642,Mg2Ga,"Ga, Mg",2,0.08082856944444394,Orthorhombic,63,Cmcm,0.0,True,True
mp-1168,HfTe5,"Hf, Te",2,0.0,Orthorhombic,63,Cmcm,0.0,False,True
mp-1515,ZrSi2,"Si, Zr",2,0.0,Orthorhombic,63,Cmcm,0.0,False,True
mp-1077545,CaC2,"C, Ca",2,0.019614823333332865,Orthorhombic,63,Cmcm,0.0,True,True
mp-1039345,CeMg2,"Ce, Mg",2,0.004994730555555549,Orthorhombic,63,Cmcm,0.0,True,True
mp-12684,LaAl,"Al, La",2,0.0,Orthorhombic,63,Cmcm,0.0,False,True
mp-303,BaZn5,"Ba, Zn",2,0.0,Orthorhombic,63,Cmcm,0.0,False,True
mp-1106000,La3Tl5,"La, Tl",2,0.0,Orthorhombic,63,Cmcm,0.0,False,True
mp-1018086,CePd,"Ce, Pd",2,0.0,Orthorhombic,63,Cmcm,0.0,False,True
mp-1077191,Li2Tl,"Li, Tl",2,0.0,Orthorhombic,63,Cmcm,0.0,False,True
mp-1018175,ThAu,"Au, Th",2,0.0,Orthorhombic,63,Cmcm,0.0,False,True
mp-1189377,Pr3Tl5,"Pr, Tl",2,0.0,Orthorhombic,63,Cmcm,0.0,False,True
mp-999141,TbAu,"Au, Tb",2,0.0,Orthorhombic,63,Cmcm,0.0,False,True
mp-600039,SiO2,"O, Si",2,0.041013644722223574,Orthorhombic,63,Cmcm,5.5869,True,False
mp-31253,Ga2Ir,"Ga, Ir",2,0.0,Orthorhombic,63,Cmcm,0.0,False,True
mp-25233,V2O5,"O, V",2,0.0328132278571438,Orthorhombic,63,Cmcm,2.4357,True,False
mp-1448,NdGa,"Ga, Nd",2,0.0,Orthorhombic,63,Cmcm,0.0,False,True
mp-1189599,Pr3In5,"In, Pr",2,0.0,Orthorhombic,63,Cmcm,0.0,False,True
mp-1185876,MgHg2,"Hg, Mg",2,0.043008662499997796,Orthorhombic,63,Cmcm,0.0,True,True
mp-1018147,EuPd,"Eu, Pd",2,0.0,Orthorhombic,63,Cmcm,0.0,False,True
mp-1711,Er3Ge4,"Er, Ge",2,0.0,Orthorhombic,63,Cmcm,0.0,False,True
mp-1341,Te2Rh3,"Rh, Te",2,0.01887093699999909,Orthorhombic,63,Cmcm,0.0,False,True
mp-1077023,TiCu2,"Cu, Ti",2,0.0,Orthorhombic,63,Cmcm,0.0,False,True
mp-178,ThAl,"Al, Th",2,0.015145160000002988,Orthorhombic,63,Cmcm,0.0,False,True
mp-11233,ZrAl,"Al, Zr",2,0.018204155999997695,Orthorhombic,63,Cmcm,0.0,False,True
mp-1188370,La3Sn5,"La, Sn",2,0.0033114933749978093,Orthorhombic,63,Cmcm,0.0,False,True
mp-1039381,CeMg2,"Ce, Mg",2,0.07118075722222095,Orthorhombic,63,Cmcm,0.0,True,True
mp-714,SrSn4,"Sn, Sr",2,0.04333420733333426,Orthorhombic,63,Cmcm,0.0,False,True
mp-21159,DyGe3,"Dy, Ge",2,0.04411963583332934,Orthorhombic,63,Cmcm,0.0,False,True
mp-1094389,Y2Mg,"Mg, Y",2,0.033438483333334545,Orthorhombic,63,Cmcm,0.0,True,True
mp-28424,K4P3,"K, P",2,0.0,Orthorhombic,63,Cmcm,0.0,False,True
mp-1094918,Ce2Mg,"Ce, Mg",2,0.047786168888887204,Orthorhombic,63,Cmcm,0.0,True,True
mp-600027,SiO2,"O, Si",2,0.019665174305556476,Orthorhombic,63,Cmcm,5.522600000000001,True,False
mp-1018276,CeGa,"Ce, Ga",2,0.0,Orthorhombic,63,Cmcm,0.0,False,True
mp-9973,VB,"B, V",2,0.0,Orthorhombic,63,Cmcm,0.0,False,True
mp-299,Mo9Se11,"Mo, Se",2,0.08093876375000164,Orthorhombic,63,Cmcm,0.0,False,True
mp-1025491,TbGe3,"Ge, Tb",2,0.04761914041666415,Orthorhombic,63,Cmcm,0.0,True,True
mp-12755,ThRh,"Rh, Th",2,0.0,Orthorhombic,63,Cmcm,0.0,False,True
mp-600004,SiO2,"O, Si",2,0.01889307555555675,Orthorhombic,63,Cmcm,5.4296,True,False
mp-1192783,V4P3,"P, V",2,0.0,Orthorhombic,63,Cmcm,0.0,False,True
mp-29631,Li11Ge6,"Ge, Li",2,0.014863323235294601,Orthorhombic,63,Cmcm,0.0,False,True
mp-1193741,Eu5Ga9,"Eu, Ga",2,0.001383364999998804,Orthorhombic,63,Cmcm,0.0,False,True
mp-16718,Al6Tc,"Al, Tc",2,0.01602835678571246,Orthorhombic,63,Cmcm,0.0,False,True
mp-972454,Sm2Mg,"Mg, Sm",2,0.010174733333334185,Orthorhombic,63,Cmcm,0.0,True,True
mp-1094272,Zr2Sn,"Sn, Zr",2,0.08494292833333716,Orthorhombic,63,Cmcm,0.0,True,True
mp-1072865,HoSn2,"Ho, Sn",2,0.0,Orthorhombic,63,Cmcm,0.0,False,True
mp-1190005,Pr3Sn5,"Pr, Sn",2,0.01801150874999813,Orthorhombic,63,Cmcm,0.0,False,True
mp-1091387,CaHg3,"Ca, Hg",2,0.006354850000001022,Orthorhombic,63,Cmcm,0.0,True,True
mp-1038792,MgBi2,"Bi, Mg",2,0.09054885666666568,Orthorhombic,63,Cmcm,0.0,True,True
mp-1103747,BaGe6,"Ba, Ge",2,0.06050131696428629,Orthorhombic,63,Cmcm,0.0,False,True
mp-1094579,LiMg2,"Li, Mg",2,0.034397095000000544,Orthorhombic,63,Cmcm,0.0,True,True
mp-30849,TaPt2,"Pt, Ta",2,0.0,Orthorhombic,63,Cmcm,0.0,False,True
mp-777469,VO2,"O, V",2,0.04778530166665185,Orthorhombic,63,Cmcm,0.0,True,True
mp-9972,YSi,"Si, Y",2,0.0,Orthorhombic,63,Cmcm,0.0,False,True
mp-976982,Li2Mg,"Li, Mg",2,0.004825256111111287,Orthorhombic,63,Cmcm,0.0,True,True
mp-998911,TmGe,"Ge, Tm",2,0.0,Orthorhombic,63,Cmcm,0.0,False,True
mp-715664,V4O9,"O, V",2,0.09689106692307803,Orthorhombic,63,Cmcm,0.37670000000000003,False,False