material_id,formula,elements,num_elements,energy_above_hull,crystal_system,spacegroup_number,spacegroup_symbol,band_gap,theoretical,is_metal
mp-1204718,Mn2O3,"Mn, O",2,0.0768867196249996,Triclinic,2,P-1,0.12799999999999967,False,False
mp-684959,Sm5Se9,"Se, Sm",2,0.03800833645089341,Triclinic,2,P-1,0.0,True,True
mp-569436,MoCl5,"Cl, Mo",2,0.0,Triclinic,2,P-1,0.0,False,True
mp-1226086,Cr5Te6,"Cr, Te",2,0.05744228727272649,Triclinic,2,P-1,0.0,True,True
mp-541582,ReSe2,"Re, Se",2,0.0,Triclinic,2,P-1,1.1434000000000002,False,False
mp-673655,Cu9Se5,"Cu, Se",2,0.08055301375000035,Triclinic,2,P-1,0.0,True,True
mp-30260,Zr8Ni21,"Ni, Zr",2,0.023987554051720927,Triclinic,2,P-1,0.0,False,True
mp-27896,BF3,"B, F",2,0.0,Triclinic,2,P-1,8.1347,False,False
mp-1184859,HI3,"H, I",2,0.0,Triclinic,2,P-1,1.2841999999999998,True,False
mp-571266,GaCl3,"Cl, Ga",2,0.0014818400000002896,Triclinic,2,P-1,4.202999999999999,False,False
mp-753607,Mn7F18,"F, Mn",2,0.04125118800000127,Triclinic,2,P-1,0.0,True,True
mp-1221178,Na7Sn12,"Na, Sn",2,0.01774593328947205,Triclinic,2,P-1,0.32260000000000044,True,False
mp-1078702,EuAs3,"As, Eu",2,0.007978333750000566,Triclinic,2,P-1,0.0,False,True
mp-1006118,P2S7,"P, S",2,0.0016519577777778238,Triclinic,2,P-1,1.8903,False,False
mp-766681,Co15O28,"Co, O",2,0.022810907674419845,Triclinic,2,P-1,0.48350000000000004,True,False
mp-705753,Fe38O39,"Fe, O",2,0.07112977292207923,Triclinic,2,P-1,1.5470000000000002,True,False
mp-9122,CaP3,"Ca, P",2,0.0,Triclinic,2,P-1,0.0049000000000001265,False,False
mp-1182902,AlF3,"Al, F",2,0.041549064999999885,Triclinic,2,P-1,7.4904,True,False
mp-30303,Bi4O7,"Bi, O",2,0.0,Triclinic,2,P-1,0.9108,False,False
mp-16302,Tb6O11,"O, Tb",2,0.09286424125000181,Triclinic,2,P-1,0.011200000000000099,False,False
mp-1079945,SrAs3,"As, Sr",2,0.004824582499999508,Triclinic,2,P-1,0.0,False,True
mp-1226578,Cr19S30,"Cr, S",2,0.007984626530613603,Triclinic,2,P-1,0.0,True,True
mp-1182019,H2O,"H, O",2,0.08490050611111144,Triclinic,2,P-1,4.549499999999999,True,False
mp-705553,Fe23O25,"Fe, O",2,0.050261070208334147,Triclinic,2,P-1,0.9117000000000002,True,False
mp-748,Ti5O9,"O, Ti",2,0.0,Triclinic,2,P-1,0.0,False,True
mp-1194653,NaP15,"Na, P",2,0.0,Triclinic,2,P-1,1.4966000000000004,False,False
mp-766361,Nb2O5,"Nb, O",2,0.011876653408162241,Triclinic,2,P-1,2.1390000000000002,True,False
mp-32715,B36O5,"B, O",2,0.01648529121951281,Triclinic,2,P-1,2.3416000000000006,True,False
mp-1214894,Al11Cr4,"Al, Cr",2,0.002587619200001612,Triclinic,2,P-1,0.0,True,True
mp-530274,Al23B50,"Al, B",2,0.0,Triclinic,2,P-1,0.0,True,True
mp-559485,V9O17,"O, V",2,0.05692713139423233,Triclinic,2,P-1,0.21409999999999973,False,False
mp-705555,Fe10O11,"Fe, O",2,0.04512183333333475,Triclinic,2,P-1,1.2106,True,False
mp-1830474,TaF5,"F, Ta",2,0.07692538499999912,Triclinic,2,P-1,5.0262,True,False
mp-1101909,VCl5,"Cl, V",2,0.0,Triclinic,2,P-1,1.0398,False,False
mp-606644,CuP10,"Cu, P",2,0.0,Triclinic,2,P-1,0.8487,False,False
mp-568245,NbBr5,"Br, Nb",2,0.0006002670833318291,Triclinic,2,P-1,1.5937,False,False
mp-1881158,BiF5,"Bi, F",2,0.005903810000000398,Triclinic,2,P-1,1.7609000000000001,True,False
mp-759037,Fe9O10,"Fe, O",2,0.03972695184210551,Triclinic,2,P-1,1.2168000000000005,True,False
mp-531572,Sr25Cl52,"Cl, Sr",2,0.025062030649348088,Triclinic,2,P-1,0.0,True,True
mp-756693,Fe13O15,"Fe, O",2,0.07782318607143068,Triclinic,2,P-1,0.9051,True,False
mp-849511,VO2,"O, V",2,0.0636305126666521,Triclinic,2,P-1,0.21419999999999995,True,False
mp-572758,ReS2,"Re, S",2,0.0,Triclinic,2,P-1,1.3202000000000003,False,False
mp-778663,Ti4O7,"O, Ti",2,0.09051638749999924,Triclinic,2,P-1,0.0,True,True
mp-556566,V8O15,"O, V",2,0.041522512663044964,Triclinic,2,P-1,0.5660999999999996,False,False
mp-9481,TcS2,"S, Tc",2,0.0,Triclinic,2,P-1,1.1885000000000003,False,False
mp-1226371,Cr2Se3,"Cr, Se",2,0.007459253999999582,Triclinic,2,P-1,0.0,True,True
mp-1188071,ZrI4,"I, Zr",2,0.025423733333330922,Triclinic,2,P-1,2.0222,True,False
mp-1310867,Cr3O4,"Cr, O",2,0.09915345976190437,Triclinic,2,P-1,1.4759999999999995,True,False
mp-684749,Zr3S4,"S, Zr",2,0.0,Triclinic,2,P-1,0.0,True,True
mp-1065860,SbS,"S, Sb",2,0.08269745624999914,Triclinic,2,P-1,0.0,False,True
mp-556069,Tb11O20,"O, Tb",2,0.0773996450806429,Triclinic,2,P-1,0.0,False,True
mp-557002,Pr9O16,"O, Pr",2,0.04821261410000233,Triclinic,2,P-1,0.0,False,True
mp-849060,VS2,"S, V",2,0.03376696499999987,Triclinic,2,P-1,0.0,True,True
mp-565700,Ti8O15,"O, Ti",2,0.0015851893478249224,Triclinic,2,P-1,0.0,False,True
mp-542495,TaSe2,"Se, Ta",2,0.008023963717949556,Triclinic,2,P-1,0.27349999999999985,False,False
mp-27736,Re2P5,"P, Re",2,0.0,Triclinic,2,P-1,0.48519999999999985,False,False
mp-32630,Ti19Se20,"Se, Ti",2,0.046407901538460195,Triclinic,2,P-1,0.0,True,True
mp-1214901,Al12Fe7,"Al, Fe",2,0.013503348070174503,Triclinic,2,P-1,0.0,True,True
mp-759504,Fe10O11,"Fe, O",2,0.056810068809523884,Triclinic,2,P-1,1.3085999999999998,True,False
mp-1203833,Ga31Mo6,"Ga, Mo",2,0.0,Triclinic,2,P-1,0.0,False,True
mp-30524,Ti6O11,"O, Ti",2,0.0,Triclinic,2,P-1,0.0,False,True
mp-684822,Co19Te34,"Co, Te",2,0.004905165660375133,Triclinic,2,P-1,0.0,True,True
mp-1080640,CeSe2,"Ce, Se",2,0.06501844551281799,Triclinic,2,P-1,0.8828999999999998,True,False
mp-487,MnP4,"Mn, P",2,0.0008484516666671382,Triclinic,2,P-1,0.21090000000000053,False,False
mp-32682,Te8Ir3,"Ir, Te",2,0.01821577545455,Triclinic,2,P-1,0.0,True,True
mp-28214,TiBr3,"Br, Ti",2,0.0,Triclinic,2,P-1,0.0,False,True
mp-1211471,KP15,"K, P",2,0.0,Triclinic,2,P-1,1.5227000000000004,True,False
mp-570748,Zn13Sb10,"Sb, Zn",2,0.015739137173913065,Triclinic,2,P-1,0.4714999999999998,False,False
mp-1249969,SiO2,"O, Si",2,0.023595856722222308,Triclinic,2,P-1,5.6645,True,False
mp-1226456,Cr2Se3,"Cr, Se",2,0.01982239799999963,Triclinic,2,P-1,0.0,True,True
mp-642822,CaC2,"C, Ca",2,0.02455759499999921,Triclinic,2,P-1,2.5547,False,False
mp-1095321,WBr5,"Br, W",2,0.0,Triclinic,2,P-1,0.0,False,True
mp-8886,Tc2As3,"As, Tc",2,0.0,Triclinic,2,P-1,0.0,False,True
mp-1190021,TeO2,"O, Te",2,0.02684457444444277,Triclinic,2,P-1,2.5820999999999996,True,False
mp-542298,Ag2F5,"Ag, F",2,0.0,Triclinic,2,P-1,0.0,False,True
mp-569578,NbI5,"I, Nb",2,0.0,Triclinic,2,P-1,0.94,False,False
mp-684985,Zr5I18,"I, Zr",2,0.03285163768115851,Triclinic,2,P-1,0.0,True,True
mp-541106,Nb2Se9,"Nb, Se",2,0.0,Triclinic,2,P-1,0.7746999999999997,False,False
mp-32697,Y10H21,"H, Y",2,0.0030904422043018798,Triclinic,2,P-1,0.0,True,True
mp-32884,Ag2S,"Ag, S",2,0.010607600000000161,Triclinic,2,P-1,1.4427999999999999,True,False
mp-1080353,CeSe2,"Ce, Se",2,0.09081748777777587,Triclinic,2,P-1,0.0,True,True
mp-684997,Ni23Te42,"Ni, Te",2,0.0038538451538450147,Triclinic,2,P-1,0.0,True,True
mp-17987,Tb11O20,"O, Tb",2,0.08899474895161319,Triclinic,2,P-1,0.0,False,True
mp-1196402,Mn6Ga29,"Ga, Mn",2,0.007107346642856172,Triclinic,2,P-1,0.0,False,True
mp-29443,PI2,"I, P",2,0.0,Triclinic,2,P-1,1.9266999999999999,False,False
mp-1209915,Pr11O20,"O, Pr",2,0.04869941362903418,Triclinic,2,P-1,0.0,True,True
mp-27173,P4Ru,"P, Ru",2,0.0,Triclinic,2,P-1,1.2586000000000013,False,False
mp-1210215,PdPb,"Pb, Pd",2,0.0,Triclinic,2,P-1,0.0,True,True
mp-1189572,As2S3,"As, S",2,0.0,Triclinic,2,P-1,1.9873,False,False
mp-685124,Ni19Se20,"Ni, Se",2,0.04252002880341621,Triclinic,2,P-1,0.0,True,True
mp-685149,K5Sb4,"K, Sb",2,0.05563398111110551,Triclinic,2,P-1,0.0,True,True
mp-684829,Co27Se32,"Co, Se",2,0.05472072423729024,Triclinic,2,P-1,0.0,True,True
mp-684799,K5As4,"As, K",2,0.05643723222222263,Triclinic,2,P-1,0.0,True,True
mp-27165,Hf8Ni21,"Hf, Ni",2,0.04098809458620778,Triclinic,2,P-1,0.0,False,True
mp-767469,Ni9S10,"Ni, S",2,0.08902302263157758,Triclinic,2,P-1,0.0,True,True
mp-673643,Ce17O32,"Ce, O",2,0.0005039608163279752,Triclinic,2,P-1,0.0,True,True
mp-1302566,CrO,"Cr, O",2,0.047315834166667514,Triclinic,2,P-1,0.0,True,True
mp-27151,V7O13,"O, V",2,0.04544910531249968,Triclinic,2,P-1,0.5028000000000006,False,False
mp-643265,ReF7,"F, Re",2,0.0,Triclinic,2,P-1,1.9773,False,False
mp-1278455,CoO2,"Co, O",2,0.012461142500001188,Triclinic,2,P-1,0.8384999999999999,True,False
mp-1216498,V3S5,"S, V",2,0.051154036874996756,Triclinic,2,P-1,0.0,True,True
mp-1217210,Ti2Te3,"Te, Ti",2,0.00390360400000489,Triclinic,2,P-1,0.0,True,True
mp-673692,Nd10Se19,"Nd, Se",2,0.018137302758621132,Triclinic,2,P-1,0.057299999999999685,True,False
mp-505619,Ce11O20,"Ce, O",2,0.0,Triclinic,2,P-1,0.0,False,True
mp-1180654,NiF3,"F, Ni",2,0.07580200124999958,Triclinic,2,P-1,1.7607000000000002,True,False
mp-1191538,Ca8In3,"Ca, In",2,0.0,Triclinic,2,P-1,0.0,False,True
mp-562100,NbS3,"Nb, S",2,0.011428080416667541,Triclinic,2,P-1,0.14869999999999983,False,False
mp-655986,SrN6,"N, Sr",2,0.056825089285714725,Triclinic,2,P-1,3.3470999999999997,True,False
mp-862779,Tc3Os,"Os, Tc",2,0.0,Hexagonal,194,P6_3/mmc,0.0,True,True
mp-1200995,Sm2Ni7,"Ni, Sm",2,0.0,Hexagonal,194,P6_3/mmc,0.0,False,True
mp-1101792,EuMg2,"Eu, Mg",2,0.0,Hexagonal,194,P6_3/mmc,0.0,False,True
mp-568565,CrAs,"As, Cr",2,0.0,Hexagonal,194,P6_3/mmc,0.0,False,True
mp-1101907,LuFe2,"Fe, Lu",2,0.023483881666662043,Hexagonal,194,P6_3/mmc,0.0,False,True
mp-1184712,GeAu3,"Au, Ge",2,0.07161296249999793,Hexagonal,194,P6_3/mmc,0.0,True,True
mp-19816,Sm2In,"In, Sm",2,0.0,Hexagonal,194,P6_3/mmc,0.0,False,True
mp-984351,CuAg3,"Ag, Cu",2,0.0857078075000004,Hexagonal,194,P6_3/mmc,0.0,True,True
mp-1197874,Dy2Ni7,"Dy, Ni",2,0.0065649002777785626,Hexagonal,194,P6_3/mmc,0.0,False,True
mp-1103618,NbNi2,"Nb, Ni",2,0.07626971661111259,Hexagonal,194,P6_3/mmc,0.0,True,True
mp-1821,WSe2,"Se, W",2,0.0,Hexagonal,194,P6_3/mmc,1.4465,False,False
mp-1079348,B3Os2,"B, Os",2,0.0,Hexagonal,194,P6_3/mmc,0.0,False,True
mp-1187686,TmLu3,"Lu, Tm",2,0.0007636662500090097,Hexagonal,194,P6_3/mmc,0.0,True,True
mp-23176,SbCl5,"Cl, Sb",2,0.01381443874999988,Hexagonal,194,P6_3/mmc,1.8399,False,False
mp-567339,PrOs2,"Os, Pr",2,0.0,Hexagonal,194,P6_3/mmc,0.0,False,True
mp-9953,HfP,"Hf, P",2,0.0,Hexagonal,194,P6_3/mmc,0.0,False,True
mp-13364,CaZn2,"Ca, Zn",2,0.025244847500000445,Hexagonal,194,P6_3/mmc,0.0,False,True
mp-7087,SiO2,"O, Si",2,0.019207063888890374,Hexagonal,194,P6_3/mmc,5.3645000000000005,False,False
mp-11275,Be2Re,"Be, Re",2,0.0,Hexagonal,194,P6_3/mmc,0.0,False,True
mp-559928,SiO2,"O, Si",2,0.04192282000000169,Hexagonal,194,P6_3/mmc,5.4895,True,False
mp-1095443,ScFe2,"Fe, Sc",2,0.018883651666667944,Hexagonal,194,P6_3/mmc,0.0,False,True
mp-21393,Ce3Al,"Al, Ce",2,0.021492286249998216,Hexagonal,194,P6_3/mmc,0.0,False,True
mp-1186554,Pm3Eu,"Eu, Pm",2,0.06920938687499856,Hexagonal,194,P6_3/mmc,0.0,True,True
mp-1183046,ZrTi3,"Ti, Zr",2,0.04050627250000005,Hexagonal,194,P6_3/mmc,0.0,True,True
mp-7955,Li3Sb,"Li, Sb",2,0.0,Hexagonal,194,P6_3/mmc,0.4833000000000003,False,False
mp-2187,TiSb,"Sb, Ti",2,0.0,Hexagonal,194,P6_3/mmc,0.0,False,True
mp-2214,TmMg2,"Mg, Tm",2,0.0022763366666662677,Hexagonal,194,P6_3/mmc,0.0,False,True
mp-24131,GdH3,"Gd, H",2,0.005940140833333274,Hexagonal,194,P6_3/mmc,0.0,False,True
mp-863695,PmI3,"I, Pm",2,0.0,Hexagonal,194,P6_3/mmc,2.0525,True,False
mp-1185939,MgPd3,"Mg, Pd",2,0.023470679999990196,Hexagonal,194,P6_3/mmc,0.0,True,True
mp-1190880,HfMn2,"Hf, Mn",2,0.014135472916663616,Hexagonal,194,P6_3/mmc,0.0,False,True
mp-1187798,Y3Ho,"Ho, Y",2,0.001282547499997122,Hexagonal,194,P6_3/mmc,0.0,True,True
mp-1192084,HfZn2,"Hf, Zn",2,0.0014859958333310885,Hexagonal,194,P6_3/mmc,0.0,False,True
mp-569945,Tb2Ni17,"Ni, Tb",2,0.006023845526315519,Hexagonal,194,P6_3/mmc,0.0,False,True
mp-30630,EuTl2,"Eu, Tl",2,0.0,Hexagonal,194,P6_3/mmc,0.0,False,True
mp-11820,BaNa2,"Ba, Na",2,0.0096082950957872,Hexagonal,194,P6_3/mmc,0.0,False,True
mp-1212567,Hf2Be17,"Be, Hf",2,0.0,Hexagonal,194,P6_3/mmc,0.0,True,True
mp-1102111,PrRe2,"Pr, Re",2,0.0684059516666693,Hexagonal,194,P6_3/mmc,0.0,False,True
mp-1196360,Tm2Co17,"Co, Tm",2,0.0,Hexagonal,194,P6_3/mmc,0.0,False,True
mp-1197586,Ho13Zn58,"Ho, Zn",2,0.0,Hexagonal,194,P6_3/mmc,0.02859999999999996,False,False
mp-721469,Rb2S,"Rb, S",2,0.08762655833333399,Hexagonal,194,P6_3/mmc,1.8962,False,False
mp-1186197,NaTl3,"Na, Tl",2,0.01580484500000523,Hexagonal,194,P6_3/mmc,0.0,True,True
mp-1005752,Sm3In,"In, Sm",2,0.011247223750000757,Hexagonal,194,P6_3/mmc,0.0,True,True
mp-20473,Mn2Ge,"Ge, Mn",2,0.07888532333333398,Hexagonal,194,P6_3/mmc,0.0,False,True
mp-568315,CdCu2,"Cd, Cu",2,0.009884054999998781,Hexagonal,194,P6_3/mmc,0.0,False,True
mp-1136,Na3As,"As, Na",2,0.0004950833333330351,Hexagonal,194,P6_3/mmc,0.09260000000000002,False,False
mp-30778,Mg5Rh2,"Mg, Rh",2,0.0,Hexagonal,194,P6_3/mmc,0.0,False,True
mp-865353,TmI3,"I, Tm",2,0.0,Hexagonal,194,P6_3/mmc,2.2545,True,False
mp-1184392,EuAg3,"Ag, Eu",2,0.06485277291666591,Hexagonal,194,P6_3/mmc,0.0,True,True
mp-1202260,Lu2Ni17,"Lu, Ni",2,0.004874307631578034,Hexagonal,194,P6_3/mmc,0.0,False,True
mp-972257,LaTb3,"La, Tb",2,0.01655439749999843,Hexagonal,194,P6_3/mmc,0.0,True,True
mp-27838,Na3Bi,"Bi, Na",2,0.0,Hexagonal,194,P6_3/mmc,0.0,False,True
mp-865605,YBr3,"Br, Y",2,0.08699960625000003,Hexagonal,194,P6_3/mmc,2.9454000000000002,True,False
mp-1201237,DyGa3,"Dy, Ga",2,0.010361390250000824,Hexagonal,194,P6_3/mmc,0.0,False,True
mp-1008488,BiPd,"Bi, Pd",2,0.0,Hexagonal,194,P6_3/mmc,0.0,False,True
mp-1102354,ThTc2,"Tc, Th",2,0.0,Hexagonal,194,P6_3/mmc,0.0,False,True
mp-983582,CaNd3,"Ca, Nd",2,0.08913731187499963,Hexagonal,194,P6_3/mmc,0.0,True,True
mp-1184402,Eu3Dy,"Dy, Eu",2,0.08138533374999923,Hexagonal,194,P6_3/mmc,0.0,True,True
mp-569446,NiPb,"Ni, Pb",2,0.0873680799999974,Hexagonal,194,P6_3/mmc,0.0,False,True
mp-20760,La2In,"In, La",2,0.0,Hexagonal,194,P6_3/mmc,0.0,False,True
mp-30625,Dy2Tl,"Dy, Tl",2,0.012201277777769803,Hexagonal,194,P6_3/mmc,0.0,False,True
mp-864894,Be3Rh,"Be, Rh",2,0.0,Hexagonal,194,P6_3/mmc,0.0,True,True
mp-1187328,Tb3Th,"Tb, Th",2,0.04769717250000127,Hexagonal,194,P6_3/mmc,0.0,True,True
mp-1183963,CsRb3,"Cs, Rb",2,0.04709288696120639,Hexagonal,194,P6_3/mmc,0.0,True,True
mp-865612,LiCd3,"Cd, Li",2,0.0,Hexagonal,194,P6_3/mmc,0.0,True,True
mp-1186447,PdAu3,"Au, Pd",2,0.011592617499999847,Hexagonal,194,P6_3/mmc,0.0,True,True
mp-1188000,Zn3Au,"Au, Zn",2,0.027401257187502637,Hexagonal,194,P6_3/mmc,0.0,True,True
mp-567832,TiTe,"Te, Ti",2,0.09452196062500207,Hexagonal,194,P6_3/mmc,0.0,False,True
mp-865400,ThPt3,"Pt, Th",2,0.0,Hexagonal,194,P6_3/mmc,0.0,True,True
mp-1186565,PmDy3,"Dy, Pm",2,0.0161629343750036,Hexagonal,194,P6_3/mmc,0.0,True,True
mp-862983,InCl3,"Cl, In",2,0.0,Hexagonal,194,P6_3/mmc,3.0122,True,False
mp-1186276,Nd3Ho,"Ho, Nd",2,0.02321020687500308,Hexagonal,194,P6_3/mmc,0.0,True,True
mp-1102378,NdRe2,"Nd, Re",2,0.0,Hexagonal,194,P6_3/mmc,0.0,False,True
mp-30787,MoRh3,"Mo, Rh",2,0.0,Hexagonal,194,P6_3/mmc,0.0,False,True
mp-11345,ZrP,"P, Zr",2,0.0,Hexagonal,194,P6_3/mmc,0.0,False,True
mp-564,TePd,"Pd, Te",2,0.0,Hexagonal,194,P6_3/mmc,0.0,False,True
mp-1184858,InCu3,"Cu, In",2,0.02753109571428425,Hexagonal,194,P6_3/mmc,0.0,True,True
mp-865324,LuCl3,"Cl, Lu",2,0.0,Hexagonal,194,P6_3/mmc,3.8453,True,False
mp-1185522,Lu3Tl,"Lu, Tl",2,0.03257750277777571,Hexagonal,194,P6_3/mmc,0.0,True,True
mp-1183206,Ag3Pd,"Ag, Pd",2,0.005026156250000469,Hexagonal,194,P6_3/mmc,0.0,True,True
mp-974030,LaRh3,"La, Rh",2,0.0,Hexagonal,194,P6_3/mmc,0.0,False,True
mp-581958,Nd13Cd58,"Cd, Nd",2,0.008913587893192076,Hexagonal,194,P6_3/mmc,0.0,False,True
mp-1183846,DyLu3,"Dy, Lu",2,0.0013440112500049395,Hexagonal,194,P6_3/mmc,0.0,True,True
mp-10052,TiAs,"As, Ti",2,0.011023386250000655,Hexagonal,194,P6_3/mmc,0.0,False,True
mp-865565,CsSn3,"Cs, Sn",2,0.08228202156661268,Hexagonal,194,P6_3/mmc,0.0,True,True
mp-1064554,BiRh,"Bi, Rh",2,0.0,Hexagonal,194,P6_3/mmc,0.0,False,True
mp-1184515,Eu3In,"Eu, In",2,0.025883434583333198,Hexagonal,194,P6_3/mmc,0.0,True,True
mp-11456,HfPt3,"Hf, Pt",2,0.0,Hexagonal,194,P6_3/mmc,0.0,False,True
mp-1018053,InCu,"Cu, In",2,0.04993737774999829,Hexagonal,194,P6_3/mmc,0.0,True,True
mp-1191930,CeIr3,"Ce, Ir",2,0.0,Hexagonal,194,P6_3/mmc,0.0,False,True
mp-10033,NbS2,"Nb, S",2,0.0,Hexagonal,194,P6_3/mmc,0.0,False,True
mp-1195194,Np2Co17,"Co, Np",2,0.024252536842102046,Hexagonal,194,P6_3/mmc,0.0,False,True
mp-975586,Pr3Y,"Pr, Y",2,0.04695810500000164,Hexagonal,194,P6_3/mmc,0.0,True,True
mp-1185338,LiCu3,"Cu, Li",2,0.008405183749999878,Hexagonal,194,P6_3/mmc,0.0,True,True
mp-863264,TbI3,"I, Tb",2,0.0,Hexagonal,194,P6_3/mmc,2.0929,True,False
mp-557523,VS2,"S, V",2,0.03391665499999874,Hexagonal,194,P6_3/mmc,0.0,False,True
mp-20033,SnIr,"Ir, Sn",2,0.0,Hexagonal,194,P6_3/mmc,0.0,False,True
mp-959,LaAl3,"Al, La",2,0.0,Hexagonal,194,P6_3/mmc,0.0,False,True
mp-1102084,DyTc2,"Dy, Tc",2,0.0,Hexagonal,194,P6_3/mmc,0.0,False,True
mp-867357,Tc3Ni,"Ni, Tc",2,0.0,Hexagonal,194,P6_3/mmc,0.0,True,True
mp-1102438,SmRu2,"Ru, Sm",2,0.0,Hexagonal,194,P6_3/mmc,0.0,False,True
mp-27652,ThI2,"I, Th",2,0.007518674722220453,Hexagonal,194,P6_3/mmc,0.0,False,True
mp-11453,HfPd3,"Hf, Pd",2,0.0,Hexagonal,194,P6_3/mmc,0.0,False,True
mp-757,Li3As,"As, Li",2,0.0,Hexagonal,194,P6_3/mmc,0.6364999999999998,False,False
mp-1186374,Os3W,"Os, W",2,0.0,Hexagonal,194,P6_3/mmc,0.0,True,True
mp-20608,Tb2In,"In, Tb",2,0.0,Hexagonal,194,P6_3/mmc,0.0,False,True
mp-984744,Ca3Tl,"Ca, Tl",2,0.0,Hexagonal,194,P6_3/mmc,0.0,True,True
mp-862986,PmBr3,"Br, Pm",2,0.0,Hexagonal,194,P6_3/mmc,2.8814,True,False
mp-978252,Ce2Zn17,"Ce, Zn",2,0.009156009999999881,Hexagonal,194,P6_3/mmc,0.0,False,True
mp-973904,HfCr2,"Cr, Hf",2,0.0929956537499983,Hexagonal,194,P6_3/mmc,0.0,False,True
mp-1025402,SrCu,"Cu, Sr",2,0.0,Hexagonal,194,P6_3/mmc,0.0,False,True
mp-1186923,Re3Rh,"Re, Rh",2,0.0,Hexagonal,194,P6_3/mmc,0.0,True,True
mp-867870,SmAl3,"Al, Sm",2,0.0,Hexagonal,194,P6_3/mmc,0.0,False,True
mp-1204381,Ce2Ni7,"Ce, Ni",2,0.0,Hexagonal,194,P6_3/mmc,0.0,False,True
mp-1679,La2Ni7,"La, Ni",2,0.00021988277776507914,Hexagonal,194,P6_3/mmc,0.0,False,True
mp-865950,AcAg3,"Ac, Ag",2,0.0,Hexagonal,194,P6_3/mmc,0.0,True,True
mp-1200992,Y2Zn17,"Y, Zn",2,0.0035459178947370162,Hexagonal,194,P6_3/mmc,0.0,False,True
mp-680564,Ce2Mg17,"Ce, Mg",2,0.03379131131579083,Hexagonal,194,P6_3/mmc,0.0,False,True
mp-1198512,EuMg5,"Eu, Mg",2,0.06976340458333352,Hexagonal,194,P6_3/mmc,0.0,False,True
mp-2362521,Li9Ge4,"Ge, Li",2,0.0,Hexagonal,194,P6_3/mmc,0.0,True,True
mp-570608,ZrCr2,"Cr, Zr",2,0.00449436791666713,Hexagonal,194,P6_3/mmc,0.0,False,True
mp-866003,ErI3,"Er, I",2,0.0,Hexagonal,194,P6_3/mmc,2.0376000000000003,True,False
mp-30607,ErMg2,"Er, Mg",2,0.006405064166666641,Hexagonal,194,P6_3/mmc,0.0,False,True
mp-1102328,HoRe2,"Ho, Re",2,0.0,Hexagonal,194,P6_3/mmc,0.0,False,True
mp-979614,Sm3Er,"Er, Sm",2,0.0136977829166689,Hexagonal,194,P6_3/mmc,0.0,True,True
mp-570718,Y2Co17,"Co, Y",2,0.0019175944736833372,Hexagonal,194,P6_3/mmc,0.0,False,True
mp-30438,Be2Cr,"Be, Cr",2,0.0,Hexagonal,194,P6_3/mmc,0.0,False,True
mp-1201279,Th2Zn17,"Th, Zn",2,0.0024226392105237693,Hexagonal,194,P6_3/mmc,0.0,False,True
mp-1199665,Lu13Zn58,"Lu, Zn",2,0.0,Hexagonal,194,P6_3/mmc,0.3612000000000002,False,False
mp-30877,SrTl2,"Sr, Tl",2,0.0,Hexagonal,194,P6_3/mmc,0.0,False,True
mp-569744,UAl2,"Al, U",2,0.0,Hexagonal,194,P6_3/mmc,0.0,False,True
mp-1187644,TmGa3,"Ga, Tm",2,0.0,Hexagonal,194,P6_3/mmc,0.0,True,True
mp-19733,Ce2In,"Ce, In",2,0.0,Hexagonal,194,P6_3/mmc,0.0,False,True
mp-210,BaLi4,"Ba, Li",2,0.0,Hexagonal,194,P6_3/mmc,0.0,False,True
mp-1186720,Pr3Ho,"Ho, Pr",2,0.04127617250000171,Hexagonal,194,P6_3/mmc,0.0,True,True
mp-1205088,La13Hg58,"Hg, La",2,0.03438915887323901,Hexagonal,194,P6_3/mmc,0.08589999999999964,False,False
mp-863026,SmCl3,"Cl, Sm",2,0.0,Hexagonal,194,P6_3/mmc,3.2898,True,False
mp-1095057,VCo3,"Co, V",2,0.09418410500000007,Hexagonal,194,P6_3/mmc,0.0,True,True
mp-862630,ReRu3,"Re, Ru",2,0.0,Hexagonal,194,P6_3/mmc,0.0,True,True
mp-1184443,Eu3Tm,"Eu, Tm",2,0.08347813208333577,Hexagonal,194,P6_3/mmc,0.0,True,True
mp-2454,TiFe2,"Fe, Ti",2,0.0,Hexagonal,194,P6_3/mmc,0.0,False,True
mp-862260,ScZn3,"Sc, Zn",2,0.0,Hexagonal,194,P6_3/mmc,0.0,True,True
mp-985291,Ac3Hg,"Ac, Hg",2,0.0677228004166679,Hexagonal,194,P6_3/mmc,0.0,True,True