material_id,formula,elements,num_elements,energy_above_hull,crystal_system,spacegroup_number,spacegroup_symbol,band_gap,theoretical,is_metal
mp-1280,ErTe,"Er, Te",2,0.0,Cubic,225,Fm-3m,0.0,False,True
mp-974990,Rb3Hg,"Hg, Rb",2,0.06862368402343755,Cubic,225,Fm-3m,0.0,True,True
mp-1079116,Mg7Sc,"Mg, Sc",2,0.05034828250000034,Cubic,225,Fm-3m,0.0,True,True
mp-2011,UP,"P, U",2,0.0,Cubic,225,Fm-3m,0.0,False,True
mp-12608,CuPt7,"Cu, Pt",2,0.0,Cubic,225,Fm-3m,0.0,False,True
mp-1556,PuTe,"Pu, Te",2,0.0,Cubic,225,Fm-3m,0.0,False,True
mp-23703,LiH,"H, Li",2,0.0,Cubic,225,Fm-3m,2.981,False,False
mp-22919,AgI,"Ag, I",2,0.09501691999999995,Cubic,225,Fm-3m,0.7684000000000002,False,False
mp-22916,NaBr,"Br, Na",2,0.0,Cubic,225,Fm-3m,4.0895,False,False
mp-24095,PrH2,"H, Pr",2,0.0,Cubic,225,Fm-3m,0.0,False,True
mp-972,MnSe,"Mn, Se",2,0.022097259999998897,Cubic,225,Fm-3m,0.0,False,True
mp-2776,Ga2Au,"Au, Ga",2,0.0,Cubic,225,Fm-3m,0.0,False,True
mp-2183,ThSe,"Se, Th",2,0.0,Cubic,225,Fm-3m,0.0,False,True
mp-8177,HgF2,"F, Hg",2,0.0,Cubic,225,Fm-3m,0.9687,False,False
mp-1176,TbTe,"Tb, Te",2,0.01375051000000127,Cubic,225,Fm-3m,0.0,False,True
mp-215,YSb,"Sb, Y",2,0.0,Cubic,225,Fm-3m,0.0,False,True
mp-22154,In2Au,"Au, In",2,0.0,Cubic,225,Fm-3m,0.0,False,True
mp-1185024,LaAg3,"Ag, La",2,0.0754518913043496,Cubic,225,Fm-3m,0.0,True,True
mp-1766,TmS,"S, Tm",2,0.0,Cubic,225,Fm-3m,0.0,False,True
mp-428,PrMg3,"Mg, Pr",2,0.0,Cubic,225,Fm-3m,0.0,False,True
mp-1787,NdMg3,"Mg, Nd",2,0.0,Cubic,225,Fm-3m,0.0,False,True
mp-1193087,Zr11Os4,"Os, Zr",2,0.0,Cubic,225,Fm-3m,0.0,False,True
mp-1192517,Tb6Mn23,"Mn, Tb",2,0.036695550606420824,Cubic,225,Fm-3m,0.0,False,True
mp-1079382,YMg7,"Mg, Y",2,0.08158782374999918,Cubic,225,Fm-3m,0.0,True,True
mp-24161,TiH2,"H, Ti",2,0.0043394133333327645,Cubic,225,Fm-3m,0.0,False,True
mp-1185502,LuMg3,"Lu, Mg",2,0.00960708250000053,Cubic,225,Fm-3m,0.0,True,True
mp-10108,NpP,"Np, P",2,0.0,Cubic,225,Fm-3m,0.0,False,True
mp-1186296,NdCd3,"Cd, Nd",2,0.0,Cubic,225,Fm-3m,0.0,True,True
mp-570,NdTe,"Nd, Te",2,0.0,Cubic,225,Fm-3m,0.0,False,True
mp-1519,CaTe,"Ca, Te",2,0.0,Cubic,225,Fm-3m,1.5535,False,False
mp-682,NaF,"F, Na",2,0.0,Cubic,225,Fm-3m,6.204,False,False
mp-614481,GdBi,"Bi, Gd",2,0.0,Cubic,225,Fm-3m,0.0,False,True
mp-1187181,SrEu3,"Eu, Sr",2,0.07030034124999673,Cubic,225,Fm-3m,0.0,True,True
mp-24285,NpH2,"H, Np",2,0.0,Cubic,225,Fm-3m,0.0,False,True
mp-864634,EuCd3,"Cd, Eu",2,0.0036581995833309122,Cubic,225,Fm-3m,0.0,True,True
mp-2291,Si2Ni,"Ni, Si",2,0.0,Cubic,225,Fm-3m,0.0,False,True
mp-1883,SnTe,"Sn, Te",2,0.0,Cubic,225,Fm-3m,0.04190000000000005,False,False
mp-30615,Er6Zn23,"Er, Zn",2,0.023862559627949587,Cubic,225,Fm-3m,0.0,False,True
mp-2748,CeAs,"As, Ce",2,0.0,Cubic,225,Fm-3m,0.0,False,True
mp-2640,TbAs,"As, Tb",2,0.0,Cubic,225,Fm-3m,0.0,False,True
mp-24727,TmH2,"H, Tm",2,0.0,Cubic,225,Fm-3m,0.0,False,True
mp-550893,HfO2,"Hf, O",2,0.08357950333333264,Cubic,225,Fm-3m,3.8043000000000005,False,False
mp-643,ThO2,"O, Th",2,0.0,Cubic,225,Fm-3m,4.4187,False,False
mp-979289,TaW3,"Ta, W",2,0.0,Cubic,225,Fm-3m,0.0,True,True
mp-807,NpTe,"Np, Te",2,0.04447918265625539,Cubic,225,Fm-3m,0.0,False,True
mp-19006,MnO,"Mn, O",2,0.053368562500001104,Cubic,225,Fm-3m,0.18440000000000012,False,False
mp-19830,ErN,"Er, N",2,0.0,Cubic,225,Fm-3m,0.12429999999999986,False,False
mp-7396,Li3Tl,"Li, Tl",2,0.0,Cubic,225,Fm-3m,0.0,False,True
mp-1206346,MgPt7,"Mg, Pt",2,0.0,Cubic,225,Fm-3m,0.0,True,True
mp-1798,CeMg3,"Ce, Mg",2,0.0,Cubic,225,Fm-3m,0.0,False,True
mp-1266,Na2Se,"Na, Se",2,0.0,Cubic,225,Fm-3m,2.0153,False,False
mp-24724,TbH2,"H, Tb",2,0.0,Cubic,225,Fm-3m,0.0,False,True
mp-1186129,NaCa3,"Ca, Na",2,0.08738552836206903,Cubic,225,Fm-3m,0.0,True,True
mp-1193674,Dy6Zn23,"Dy, Zn",2,0.025026362404718228,Cubic,225,Fm-3m,0.0,False,True
mp-12777,AlCu3,"Al, Cu",2,0.0210512025000007,Cubic,225,Fm-3m,0.0,False,True
mp-2647,Al2Au,"Al, Au",2,0.0,Cubic,225,Fm-3m,0.0,False,True
mp-11718,RbF,"F, Rb",2,0.0,Cubic,225,Fm-3m,5.5244,True,False
mp-1080251,CeSe2,"Ce, Se",2,0.07466233500000463,Cubic,225,Fm-3m,0.7831999999999999,True,False
mp-2343,Mg2Sn,"Mg, Sn",2,0.0,Cubic,225,Fm-3m,0.0,False,True
mp-24237,ScH2,"H, Sc",2,0.0,Cubic,225,Fm-3m,0.0,False,True
mp-1342,BaO,"Ba, O",2,0.0,Cubic,225,Fm-3m,2.0906000000000002,False,False
mp-1094734,CaMg3,"Ca, Mg",2,0.037659597499999364,Cubic,225,Fm-3m,0.0,True,True
mp-20211,Mn3Si,"Mn, Si",2,0.011287056422414565,Cubic,225,Fm-3m,0.0,False,True
mp-999395,Nb3Fe,"Fe, Nb",2,0.08483668403846245,Cubic,225,Fm-3m,0.0,True,True
mp-1206874,CoH,"Co, H",2,0.0,Cubic,225,Fm-3m,0.0,True,True
mp-2143,USe,"Se, U",2,0.0,Cubic,225,Fm-3m,0.0,False,True
mp-2596,NpN,"N, Np",2,0.0,Cubic,225,Fm-3m,0.0,False,True
mp-503,ThS,"S, Th",2,0.0,Cubic,225,Fm-3m,0.0,False,True
mp-976256,Li3Mg,"Li, Mg",2,0.00999580541666667,Cubic,225,Fm-3m,0.0,True,True
mp-973100,ScCu3,"Cu, Sc",2,0.04917266500000039,Cubic,225,Fm-3m,0.0,True,True
mp-1009730,Ca2Sn,"Ca, Sn",2,0.010972289166666371,Cubic,225,Fm-3m,0.6619999999999999,True,False
mp-1062620,Sr2Ir,"Ir, Sr",2,0.06671562249999496,Cubic,225,Fm-3m,0.0,False,True
mp-1185667,Na3Ge,"Ge, Na",2,0.07852106469288778,Cubic,225,Fm-3m,0.0,True,True
mp-600023,SiO2,"O, Si",2,0.022853508888889706,Cubic,225,Fm-3m,5.488,True,False
mp-570632,ScBi,"Bi, Sc",2,0.0,Cubic,225,Fm-3m,0.0,False,True
mp-1925,ZrS,"S, Zr",2,0.09077406500000063,Cubic,225,Fm-3m,0.0,False,True
mp-12305,Sc11Os4,"Os, Sc",2,0.0,Cubic,225,Fm-3m,0.0,False,True
mp-12304,Sc11Ir4,"Ir, Sc",2,0.0,Cubic,225,Fm-3m,0.0,False,True
mp-1039230,Ca3Mg,"Ca, Mg",2,0.06393943312499961,Cubic,225,Fm-3m,0.0,True,True
mp-2082,PIr2,"Ir, P",2,0.0,Cubic,225,Fm-3m,0.0,False,True
mp-1708,YTe,"Te, Y",2,0.026799620000002022,Cubic,225,Fm-3m,0.0,False,True
mp-1183462,CaAu3,"Au, Ca",2,0.06235361499999925,Cubic,225,Fm-3m,0.0,True,True
mp-1183328,BaMg3,"Ba, Mg",2,0.0691160455113633,Cubic,225,Fm-3m,0.0,True,True
mp-1164,ThC,"C, Th",2,0.0,Cubic,225,Fm-3m,0.0,False,True
mp-1185265,Li3Sn,"Li, Sn",2,0.0,Cubic,225,Fm-3m,0.0,True,True
mp-10054,ZrAs,"As, Zr",2,0.06273761874999906,Cubic,225,Fm-3m,0.0,False,True
mp-1153,Li2S,"Li, S",2,0.0,Cubic,225,Fm-3m,3.3862000000000005,False,False
mp-1876,SnS,"S, Sn",2,0.0916259837499993,Cubic,225,Fm-3m,0.08940000000000037,False,False
mp-1038832,Mg3Cd,"Cd, Mg",2,0.04711885812499972,Cubic,225,Fm-3m,0.0,True,True
mp-1265,MgO,"Mg, O",2,0.0,Cubic,225,Fm-3m,4.4292,False,False
mp-1084,ZrB12,"B, Zr",2,0.02063499115384282,Cubic,225,Fm-3m,0.0,False,True
mp-23171,PrBi,"Bi, Pr",2,0.0,Cubic,225,Fm-3m,0.0,False,True
mp-32939,Fe7O8,"Fe, O",2,0.09913590433333397,Cubic,225,Fm-3m,0.0,True,True
mp-1079855,LiPd7,"Li, Pd",2,0.0,Cubic,225,Fm-3m,0.0,False,True
mp-1187697,V3Fe,"Fe, V",2,0.025741546249999914,Cubic,225,Fm-3m,0.0,True,True
mp-1008734,ThH2,"H, Th",2,0.009469673333327933,Cubic,225,Fm-3m,0.0,True,True
mp-1785,PrSb,"Pr, Sb",2,0.0,Cubic,225,Fm-3m,0.0,False,True
mp-1355,Y6Mn23,"Mn, Y",2,0.0978609220785458,Cubic,225,Fm-3m,0.0,False,True
mp-31222,Th6Mn23,"Mn, Th",2,0.05506917750297191,Cubic,225,Fm-3m,0.0,False,True
mp-1185982,MgTl3,"Mg, Tl",2,0.08474601583332886,Cubic,225,Fm-3m,0.0,True,True
mp-862559,LaCd3,"Cd, La",2,0.0,Cubic,225,Fm-3m,0.0,True,True
mp-2491,ErSe,"Er, Se",2,0.0,Cubic,225,Fm-3m,0.0,False,True
mp-1738,SmAs,"As, Sm",2,0.0,Cubic,225,Fm-3m,0.0,False,True
mp-1432,Be2B,"B, Be",2,0.054649395972222514,Cubic,225,Fm-3m,0.0,False,True
mp-862736,SmAg3,"Ag, Sm",2,0.06238101763513626,Cubic,225,Fm-3m,0.0,True,True
mp-977390,Ta3Ru,"Ru, Ta",2,0.0,Cubic,225,Fm-3m,0.0,True,True
mp-22319,UB12,"B, U",2,0.0,Cubic,225,Fm-3m,0.0,False,True
mp-22095,Ga2Pt,"Ga, Pt",2,0.0,Cubic,225,Fm-3m,0.0,False,True
mp-973149,Mn3Al,"Al, Mn",2,0.06899594353448268,Cubic,225,Fm-3m,0.0,True,True
mp-1183486,Ca3Ac,"Ac, Ca",2,0.05193761812499886,Cubic,225,Fm-3m,0.0,True,True
mp-1000,BaTe,"Ba, Te",2,0.0,Cubic,225,Fm-3m,1.593,False,False
mp-342,SmTe,"Sm, Te",2,0.0,Cubic,225,Fm-3m,0.0,False,True
mp-1513,Co9S8,"Co, S",2,0.0,Cubic,225,Fm-3m,0.0,False,True
mp-1194521,Th6Cd23,"Cd, Th",2,0.014682211372129217,Cubic,225,Fm-3m,0.0,False,True
mp-24153,LaH2,"H, La",2,0.0,Cubic,225,Fm-3m,0.0,False,True
mp-2191,ErSb,"Er, Sb",2,0.0,Cubic,225,Fm-3m,0.0,False,True
mp-22922,AgCl,"Ag, Cl",2,0.0,Cubic,225,Fm-3m,0.9522000000000002,False,False
mp-1352,ZrN,"N, Zr",2,0.0,Cubic,225,Fm-3m,0.0,False,True
mp-975028,Rb3Cd,"Cd, Rb",2,0.07145298548076928,Cubic,225,Fm-3m,0.0,True,True
mp-1184893,K3Na,"K, Na",2,0.027303699687500682,Cubic,225,Fm-3m,0.0,True,True
mp-1186024,Na3Cd,"Cd, Na",2,0.0,Cubic,225,Fm-3m,0.0,True,True
mp-549,ScSb,"Sb, Sc",2,0.0,Cubic,225,Fm-3m,0.0,False,True
mp-1183465,Bi3Pb,"Bi, Pb",2,0.057090392500000586,Cubic,225,Fm-3m,0.0,True,True
mp-1183330,Ba3Sr,"Ba, Sr",2,0.0035189374999995415,Cubic,225,Fm-3m,0.0,True,True
mp-1194271,Zr6Ni23,"Ni, Zr",2,0.042554500000000495,Cubic,225,Fm-3m,0.0,False,True
mp-2018,AlFe3,"Al, Fe",2,0.035353807499999945,Cubic,225,Fm-3m,0.0,False,True
mp-1094603,LiMg3,"Li, Mg",2,0.014990625624999865,Cubic,225,Fm-3m,0.0,True,True
mp-22879,PuBi,"Bi, Pu",2,0.017485843125003342,Cubic,225,Fm-3m,0.0,False,True
mp-2052,ScAs,"As, Sc",2,0.0,Cubic,225,Fm-3m,0.0,False,True
mp-2352,Na2O,"Na, O",2,0.0,Cubic,225,Fm-3m,1.8736000000000002,False,False
mp-570442,Th6Mg23,"Mg, Th",2,0.028802037413794057,Cubic,225,Fm-3m,0.0,False,True
mp-977434,Nb3Ru,"Nb, Ru",2,0.0,Cubic,225,Fm-3m,0.0,True,True
mp-1502,Al2Pt,"Al, Pt",2,0.0,Cubic,225,Fm-3m,0.0,False,True
mp-1610,TbS,"S, Tb",2,0.0,Cubic,225,Fm-3m,0.0,False,True
mp-2693,SnSe,"Se, Sn",2,0.04118599874999873,Cubic,225,Fm-3m,0.1189,False,False
mp-1184344,Ga3Pb,"Ga, Pb",2,0.09295059437500086,Cubic,225,Fm-3m,0.0,True,True
mp-10260,Ni3Sb,"Ni, Sb",2,0.06972585000000109,Cubic,225,Fm-3m,0.0,False,True
mp-2732,PRh2,"P, Rh",2,0.0,Cubic,225,Fm-3m,0.0,False,True
mp-1104892,PuB12,"B, Pu",2,0.0,Cubic,225,Fm-3m,0.0,False,True
mp-10159,K3Sb,"K, Sb",2,0.015185716250000425,Cubic,225,Fm-3m,0.6773,False,False
mp-1186080,Na3Sn,"Na, Sn",2,0.04590408762499898,Cubic,225,Fm-3m,0.0,True,True
mp-1009755,Ca2Ge,"Ca, Ge",2,0.0,Cubic,225,Fm-3m,0.5756000000000001,True,False
mp-2627,DyAs,"As, Dy",2,0.0,Cubic,225,Fm-3m,0.0,False,True
mp-1444174,CeSe2,"Ce, Se",2,0.011111677222220173,Cubic,225,Fm-3m,0.8058000000000005,True,False
mp-977062,Na3Ca,"Ca, Na",2,0.08530955508620686,Cubic,225,Fm-3m,0.0,True,True
mp-1094230,MgSn3,"Mg, Sn",2,0.09069722937500035,Cubic,225,Fm-3m,0.0,True,True
mp-814,DySe,"Dy, Se",2,0.0,Cubic,225,Fm-3m,0.0,False,True
mp-1002114,VH,"H, V",2,0.01328882500000006,Cubic,225,Fm-3m,0.0,True,True
mp-1060435,TiH,"H, Ti",2,0.053561411250001356,Cubic,225,Fm-3m,0.0,True,True
mp-492,TiN,"N, Ti",2,0.0,Cubic,225,Fm-3m,0.0,False,True
mp-1194452,Tm6Zn23,"Tm, Zn",2,0.023166118153358006,Cubic,225,Fm-3m,0.0,False,True
mp-24722,HRh,"H, Rh",2,0.050810500625001254,Cubic,225,Fm-3m,0.0,False,True
mp-1672,CaS,"Ca, S",2,0.0,Cubic,225,Fm-3m,2.3819,False,False
mp-1186973,ScAg3,"Ag, Sc",2,0.06851194250000248,Cubic,225,Fm-3m,0.0,True,True
mp-975198,RbTl3,"Rb, Tl",2,0.0735666704999991,Cubic,225,Fm-3m,0.0,True,True
mp-1253,BaSe,"Ba, Se",2,0.0,Cubic,225,Fm-3m,1.9487999999999999,False,False
mp-1367,Mg2Si,"Mg, Si",2,0.0,Cubic,225,Fm-3m,0.21799999999999997,False,False
mp-408,Mg2Ge,"Ge, Mg",2,0.0,Cubic,225,Fm-3m,0.16890000000000027,False,False
mp-973940,LiCd3,"Cd, Li",2,0.015826024999999078,Cubic,225,Fm-3m,0.0,True,True
mp-1187253,TaTi3,"Ta, Ti",2,0.09749539499999926,Cubic,225,Fm-3m,0.0,True,True
mp-744,HoP,"Ho, P",2,0.0,Cubic,225,Fm-3m,0.0,False,True
mp-865382,V3Ru,"Ru, V",2,0.0,Cubic,225,Fm-3m,0.0,True,True
mp-2014,DyP,"Dy, P",2,0.0,Cubic,225,Fm-3m,0.0,False,True
mp-1186074,Na3Pd,"Na, Pd",2,0.01798699250000091,Cubic,225,Fm-3m,0.0,True,True
mp-295,HoAs,"As, Ho",2,0.0,Cubic,225,Fm-3m,0.0,False,True
mp-2472,SrO,"O, Sr",2,0.0,Cubic,225,Fm-3m,3.2748,False,False
mp-2823,NdP,"Nd, P",2,0.0,Cubic,225,Fm-3m,0.0,False,True
mp-1187702,VW3,"V, W",2,0.0,Cubic,225,Fm-3m,0.0,True,True
mp-23304,Rb3Bi,"Bi, Rb",2,0.013430248749997986,Cubic,225,Fm-3m,0.0,False,True
mp-1776,UN2,"N, U",2,0.0,Cubic,225,Fm-3m,0.6927000000000003,False,False
mp-568662,BaCl2,"Ba, Cl",2,0.0,Cubic,225,Fm-3m,5.4291,False,False
mp-1009545,PaN,"N, Pa",2,0.0,Cubic,225,Fm-3m,0.0,False,True
mp-1185107,KRb3,"K, Rb",2,0.023103715062500862,Cubic,225,Fm-3m,0.0,True,True
mp-971944,SrMg3,"Mg, Sr",2,0.06553898124999957,Cubic,225,Fm-3m,0.0,True,True
mp-20194,CeO2,"Ce, O",2,0.0,Cubic,225,Fm-3m,1.8647,False,False
mp-982873,Na3Tl,"Na, Tl",2,0.018011489062498498,Cubic,225,Fm-3m,0.0,True,True
mp-2182,SnAs,"As, Sn",2,0.020263348571425865,Cubic,225,Fm-3m,0.0,False,True
mp-865376,YMg3,"Mg, Y",2,0.0,Cubic,225,Fm-3m,0.0,True,True
mp-1960,Li2O,"Li, O",2,0.0,Cubic,225,Fm-3m,4.8986,False,False
mp-1039249,MgCd3,"Cd, Mg",2,0.07606669291666779,Cubic,225,Fm-3m,0.0,True,True
mp-1183674,CdIn3,"Cd, In",2,0.06416026750000015,Cubic,225,Fm-3m,0.0,True,True
mp-1183404,Be3Cu,"Be, Cu",2,0.06306997875000064,Cubic,225,Fm-3m,0.0,True,True
mp-7817,YB12,"B, Y",2,0.0,Cubic,225,Fm-3m,0.0,False,True
mp-24192,ErH2,"Er, H",2,0.0,Cubic,225,Fm-3m,0.0,False,True
mp-883,HoN,"Ho, N",2,0.0,Cubic,225,Fm-3m,0.08749999999999991,False,False
mp-571102,TlI,"I, Tl",2,0.0,Cubic,225,Fm-3m,2.2085999999999997,False,False
mp-1193308,Tm6Fe23,"Fe, Tm",2,0.008415423103447672,Cubic,225,Fm-3m,0.0,False,True
mp-7171,TmP,"P, Tm",2,0.0,Cubic,225,Fm-3m,0.0,False,True
mp-581967,Nb2O5,"Nb, O",2,0.0,Monoclinic,3,P2,1.6713,False,False
mp-1258196,SiO2,"O, Si",2,0.006705104215685154,Monoclinic,3,P2,5.6745,True,False
mp-1215897,Zn53Co7,"Co, Zn",2,0.0,Monoclinic,3,P2,0.0,True,True
mp-850249,Fe4S5,"Fe, S",2,0.06171048499999987,Monoclinic,3,P2,0.0,True,True
mp-28180,Sb4F15,"F, Sb",2,0.0011907342763253226,Orthorhombic,29,Pca2_1,3.5793,False,False
mp-680333,Ge4Se9,"Ge, Se",2,0.0,Orthorhombic,29,Pca2_1,1.2221,False,False
mp-568251,Ni6Se5,"Ni, Se",2,0.01844094863636414,Orthorhombic,29,Pca2_1,0.0,False,True
mp-1080297,CeSe2,"Ce, Se",2,0.0474850474999986,Orthorhombic,29,Pca2_1,0.22880000000000056,True,False
mp-685097,HfO2,"Hf, O",2,0.021979467500003125,Orthorhombic,29,Pca2_1,4.4148,True,False
mp-1207466,ZnH6,"H, Zn",2,0.028948922857142456,Orthorhombic,29,Pca2_1,4.6204,True,False
mp-1229002,AsS,"As, S",2,0.05629194421874928,Orthorhombic,29,Pca2_1,0.6236000000000002,True,False
mp-569051,MgH2,"H, Mg",2,0.04380347000000029,Orthorhombic,29,Pca2_1,2.3531,False,False
mp-550714,PbO,"O, Pb",2,0.02052567453124965,Orthorhombic,29,Pca2_1,2.3054,False,False
mp-27465,S8O,"O, S",2,0.05311817932291607,Orthorhombic,29,Pca2_1,2.4234999999999998,False,False
mp-556605,ZrO2,"O, Zr",2,0.016660947500000134,Orthorhombic,29,Pca2_1,3.6906999999999996,False,False
mp-1213206,CsP7,"Cs, P",2,8.425187500016307e-05,Orthorhombic,29,Pca2_1,1.3142000000000005,True,False
mp-639733,SiO2,"O, Si",2,0.024183770416666306,Orthorhombic,29,Pca2_1,5.6305,True,False
mp-285,Mo17O47,"Mo, O",2,0.008064385485491599,Orthorhombic,32,Pba2,0.0,False,True
mp-567269,TeI4,"I, Te",2,0.0020793085000008205,Orthorhombic,31,Pmn2_1,1.8285999999999998,False,False
mp-22693,Te2W,"Te, W",2,0.0,Orthorhombic,31,Pmn2_1,0.0,False,True
mp-570506,ZrI2,"I, Zr",2,0.0,Orthorhombic,31,Pmn2_1,0.2845999999999993,False,False
mp-754071,Pb2O3,"O, Pb",2,0.08714068949999998,Orthorhombic,31,Pmn2_1,0.13529999999999998,True,False
mp-1198336,Al13Co4,"Al, Co",2,0.012247626556373348,Orthorhombic,31,Pmn2_1,0.0,False,True
mp-545552,SnO,"O, Sn",2,0.07143616499999794,Orthorhombic,31,Pmn2_1,1.6851000000000003,False,False
mp-1189633,Sb2S3,"S, Sb",2,0.0006069709999998452,Orthorhombic,31,Pmn2_1,1.2751000000000001,False,False
mp-1188318,SiH8,"H, Si",2,0.0015423041666666748,Orthorhombic,31,Pmn2_1,7.028499999999999,True,False
mp-1147708,P2S3,"P, S",2,0.056874958062499203,Orthorhombic,31,Pmn2_1,2.4934000000000003,True,False
mp-553945,SiO2,"O, Si",2,0.011418784270832205,Orthorhombic,31,Pmn2_1,5.6059,False,False
mp-554089,SiO2,"O, Si",2,0.006757618888888928,Orthorhombic,33,Pna2_1,5.660399999999999,True,False
mp-22889,ZnCl2,"Cl, Zn",2,0.0006679683333334907,Orthorhombic,33,Pna2_1,4.04,False,False
mp-28027,AsF3,"As, F",2,0.0,Orthorhombic,33,Pna2_1,5.359999999999999,False,False
mp-230,SbO2,"O, Sb",2,0.0015151433333091546,Orthorhombic,33,Pna2_1,1.8897000000000004,False,False
mp-729728,CO2,"C, O",2,0.017961964166667954,Orthorhombic,33,Pna2_1,6.453099999999999,False,False
mp-402,CdP2,"Cd, P",2,0.000841278750000285,Orthorhombic,33,Pna2_1,1.4897999999999998,False,False
mp-1190691,LaS2,"La, S",2,0.0009366491666682464,Orthorhombic,33,Pna2_1,0.6423000000000005,False,False
mp-1196526,Nb6I11,"I, Nb",2,0.0027396400735328896,Orthorhombic,33,Pna2_1,0.0,False,True
mp-641661,XeF6,"F, Xe",2,0.007340873392857272,Orthorhombic,33,Pna2_1,2.5833,False,False
mp-2254,Al2O3,"Al, O",2,0.020825458749999193,Orthorhombic,33,Pna2_1,4.8274,False,False
mp-715276,Fe2O3,"Fe, O",2,0.08590186200000005,Orthorhombic,33,Pna2_1,1.5103,True,False
mp-778667,CrO3,"Cr, O",2,0.07781717150000134,Orthorhombic,33,Pna2_1,1.3593000000000002,True,False
mp-616204,Ga3Cl7,"Cl, Ga",2,0.0,Orthorhombic,33,Pna2_1,4.1427,False,False
mp-754628,WN2,"N, W",2,0.09135189333333216,Orthorhombic,33,Pna2_1,0.8351,True,False
mp-775837,Sc2O3,"O, Sc",2,0.08177998074999948,Orthorhombic,33,Pna2_1,4.1645,True,False
mp-771717,Mn2O3,"Mn, O",2,0.08820273437499893,Orthorhombic,33,Pna2_1,0.0,True,True
mp-2414,SO3,"O, S",2,0.0036010779166666396,Orthorhombic,33,Pna2_1,5.1448,False,False
mp-29611,B5H8,"B, H",2,0.032704372639860146,Orthorhombic,33,Pna2_1,5.4267,False,False
mp-759937,VF4,"F, V",2,0.049331642000000286,Orthorhombic,33,Pna2_1,1.8642,True,False
mp-32760,LiP5,"Li, P",2,0.09630660601190577,Orthorhombic,33,Pna2_1,0.5134999999999996,True,False
mp-2412,LiP5,"Li, P",2,0.007694938690475439,Orthorhombic,33,Pna2_1,1.2571000000000003,False,False
mp-1194880,W5I16,"I, W",2,0.0,Orthorhombic,33,Pna2_1,0.8664999999999998,False,False
mp-1188721,IN4,"I, N",2,0.0,Orthorhombic,33,Pna2_1,0.0,False,True
mp-1178977,TeO3,"O, Te",2,0.058836148750000206,Orthorhombic,33,Pna2_1,0.8240000000000003,True,False
mp-651772,UTe5,"Te, U",2,0.00966352458332409,Orthorhombic,33,Pna2_1,0.0,False,True
mp-2447,P4Se5,"P, Se",2,0.007723663437500861,Orthorhombic,33,Pna2_1,1.8240999999999998,False,False
mp-542610,Mo4O11,"Mo, O",2,0.015114235285713207,Orthorhombic,33,Pna2_1,0.0,False,True
mp-1218177,Ta3Os2,"Os, Ta",2,0.0,Orthorhombic,35,Cmm2,0.0,True,True
mp-1229280,Cd5Ni,"Cd, Ni",2,0.05052089243055846,Orthorhombic,35,Cmm2,0.0,True,True
mp-1220934,Nb3Os2,"Nb, Os",2,0.0,Orthorhombic,35,Cmm2,0.0,True,True
mp-1221719,Mo3Os2,"Mo, Os",2,0.014078369666670199,Orthorhombic,35,Cmm2,0.0,True,True
mp-1221651,Mo3Ru2,"Mo, Ru",2,0.06753384466667,Orthorhombic,35,Cmm2,0.0,True,True
mp-1219644,Ru2W3,"Ru, W",2,0.082516478666669,Orthorhombic,35,Cmm2,0.0,True,True
mp-1215714,Zn2Pd,"Pd, Zn",2,0.0,Orthorhombic,35,Cmm2,0.0,True,True
mp-1219297,Re3Mo2,"Mo, Re",2,0.07697495949999933,Orthorhombic,35,Cmm2,0.0,True,True
mp-1226444,Cr3Co2,"Co, Cr",2,0.07854682700000204,Orthorhombic,35,Cmm2,0.0,True,True
mp-8781,SnS,"S, Sn",2,0.07821957875000152,Orthorhombic,39,Aem2,1.456,False,False
mp-558134,TlF,"F, Tl",2,0.006064926249997882,Orthorhombic,39,Aem2,3.0167999999999995,True,False
mp-1179154,TlO,"O, Tl",2,0.09392196583333146,Orthorhombic,39,Aem2,0.4781000000000004,True,False
mp-554134,SnS,"S, Sn",2,0.07869257624999904,Orthorhombic,39,Aem2,1.6680000000000001,False,False
mp-1826,Ta3S2,"S, Ta",2,0.0,Orthorhombic,39,Aem2,0.0,False,True
mp-754748,CoO2,"Co, O",2,0.005798527500001427,Orthorhombic,39,Aem2,1.126,True,False
mp-505634,Cs2Te3,"Cs, Te",2,0.0,Orthorhombic,36,Cmc2_1,0.5258000000000003,False,False
mp-16964,SiO2,"O, Si",2,0.012128847222223627,Orthorhombic,36,Cmc2_1,5.6779,False,False
mp-7447,Rb2Se3,"Rb, Se",2,0.0,Orthorhombic,36,Cmc2_1,0.6811999999999999,False,False
mp-570044,NbI4,"I, Nb",2,0.0,Orthorhombic,36,Cmc2_1,0.47750000000000004,False,False
mp-1102036,NiP,"Ni, P",2,0.04481476958333275,Orthorhombic,36,Cmc2_1,0.0,False,True
mp-28035,BaP10,"Ba, P",2,0.0036162985064951414,Orthorhombic,36,Cmc2_1,1.2963000000000005,False,False
mp-1066781,BrCl,"Br, Cl",2,0.0,Orthorhombic,36,Cmc2_1,1.8319999999999999,False,False
mp-1194315,NiP,"Ni, P",2,0.023706276488095313,Orthorhombic,36,Cmc2_1,0.0,False,True