material_id,formula,elements,num_elements,energy_above_hull,crystal_system,spacegroup_number,spacegroup_symbol,band_gap,theoretical,is_metal
mp-422,BeS,"Be, S",2,0.0,Cubic,216,F-43m,3.1453,False,False
mp-20012,InSb,"In, Sb",2,0.0,Cubic,216,F-43m,0.0,False,True
mp-1541,BeSe,"Be, Se",2,0.0,Cubic,216,F-43m,2.6636999999999995,False,False
mp-22914,CuCl,"Cl, Cu",2,0.018326194999998435,Cubic,216,F-43m,0.5646,False,False
mp-1199736,Y11Cd45,"Cd, Y",2,0.0,Cubic,216,F-43m,0.0,False,True
mp-22925,AgI,"Ag, I",2,0.00240655500000031,Cubic,216,F-43m,1.3674,False,False
mp-569273,Mg44Ir7,"Ir, Mg",2,0.0,Cubic,216,F-43m,0.0,False,True
mp-1201594,Nd11Hg45,"Hg, Nd",2,0.03420168294642423,Cubic,216,F-43m,0.0,False,True
mp-30578,DyCu5,"Cu, Dy",2,0.019208730000000784,Cubic,216,F-43m,0.0,False,True
mp-622511,In2Te3,"In, Te",2,0.04191975497777989,Cubic,216,F-43m,0.0,False,True
mp-1025010,Be5Fe,"Be, Fe",2,0.04924908499999958,Cubic,216,F-43m,0.0,False,True
mp-30579,ErCu5,"Cu, Er",2,0.0,Cubic,216,F-43m,0.0,False,True
mp-2176,ZnTe,"Te, Zn",2,0.0,Cubic,216,F-43m,1.0732999999999997,False,False
mp-580136,LuCu5,"Cu, Lu",2,0.0,Cubic,216,F-43m,0.0,False,True
mp-1009222,MnTe,"Mn, Te",2,0.0,Cubic,216,F-43m,0.0,True,True
mp-1215375,Zr5S8,"S, Zr",2,0.09271110413461514,Cubic,216,F-43m,0.0,True,True
mp-1002181,TcN,"N, Tc",2,0.09471866833333209,Cubic,216,F-43m,0.0,True,True
mp-1204969,Sm11Hg45,"Hg, Sm",2,0.08426484178571059,Cubic,216,F-43m,0.0,False,True
mp-2730,HgTe,"Hg, Te",2,0.0,Cubic,216,F-43m,0.0,False,True
mp-1229288,Ce15Ni32,"Ce, Ni",2,0.0023196492198591656,Cubic,216,F-43m,0.0,True,True
mp-10044,BAs,"As, B",2,0.08038976749999982,Cubic,216,F-43m,1.2036999999999995,False,False
mp-1072399,Be5Pt,"Be, Pt",2,0.0,Cubic,216,F-43m,0.09529999999999994,False,False
mp-2293,MnSe,"Mn, Se",2,0.0035405599999993598,Cubic,216,F-43m,0.0484,False,False
mp-567122,Sm11Cd45,"Cd, Sm",2,0.0,Cubic,216,F-43m,0.0,False,True
mp-2691,CdSe,"Cd, Se",2,0.0005536825000014289,Cubic,216,F-43m,0.5096,False,False
mp-947,Au2S,"Au, S",2,0.0,Cubic,224,Pn-3m,1.9091,False,False
mp-353,Ag2O,"Ag, O",2,0.0,Cubic,224,Pn-3m,0.0,False,True
mp-361,Cu2O,"Cu, O",2,0.020215283333334,Cubic,224,Pn-3m,0.5126999999999997,False,False
mp-1077045,Ti2H,"H, Ti",2,0.045704061944444874,Cubic,224,Pn-3m,0.0,True,True
mp-20995,Eu4As3,"As, Eu",2,0.0,Cubic,220,I-43d,0.0,False,True
mp-15661,Sc4C3,"C, Sc",2,0.0,Cubic,220,I-43d,0.32870000000000044,False,False
mp-1777,Li15Ge4,"Ge, Li",2,0.0,Cubic,220,I-43d,0.0,False,True
mp-2571,Rb2O3,"O, Rb",2,0.05271233749999915,Cubic,220,I-43d,0.0,False,True
mp-23187,La4Bi3,"Bi, La",2,0.009021280714287094,Cubic,220,I-43d,0.0,False,True
mp-2625,U2C3,"C, U",2,0.0,Cubic,220,I-43d,0.0,False,True
mp-1214488,Ba4As3,"As, Ba",2,0.0,Cubic,220,I-43d,0.0,True,True
mp-1184,La2C3,"C, La",2,0.0,Cubic,220,I-43d,0.0,False,True
mp-567,La3S4,"La, S",2,0.026359346785710613,Cubic,220,I-43d,0.0,False,True
mp-571474,Sm4Sn3,"Sm, Sn",2,0.0,Cubic,220,I-43d,0.0,False,True
mp-11661,Zr3N4,"N, Zr",2,0.06071053321428721,Cubic,220,I-43d,0.6862000000000004,False,False
mp-2045,Tb4Sb3,"Sb, Tb",2,0.035107847142857196,Cubic,220,I-43d,0.0,False,True
mp-879,La3Te4,"La, Te",2,0.0,Cubic,220,I-43d,0.0,False,True
mp-1695,Y2C3,"C, Y",2,0.044295184659999265,Cubic,220,I-43d,0.0,False,True
mp-2656,Nd3S4,"Nd, S",2,0.03791326500000025,Cubic,220,I-43d,0.0,False,True
mp-20831,Gd4Sb3,"Gd, Sb",2,0.0,Cubic,220,I-43d,0.0,False,True
mp-491,La3Se4,"La, Se",2,0.010068908392856457,Cubic,220,I-43d,0.0,False,True
mp-570759,Tb4Bi3,"Bi, Tb",2,0.031442341071426405,Cubic,220,I-43d,0.0,False,True
mp-1213719,Cs2O3,"Cs, O",2,0.05185628749999971,Cubic,220,I-43d,0.0,True,True
mp-2204,Nd3Te4,"Nd, Te",2,0.036054504285711886,Cubic,220,I-43d,0.0,False,True
mp-1927,Dy4Sb3,"Dy, Sb",2,0.016935901785717355,Cubic,220,I-43d,0.0,False,True
mp-568320,Y4Sb3,"Sb, Y",2,0.0455546978571455,Cubic,220,I-43d,0.0,False,True
mp-1209700,Pu4Bi3,"Bi, Pu",2,0.0,Cubic,220,I-43d,0.0,True,True
mp-20036,Gd3S4,"Gd, S",2,0.04382667535714191,Cubic,220,I-43d,0.0,False,True
mp-21895,Na15Pb4,"Na, Pb",2,0.0,Cubic,220,I-43d,0.0,False,True
mp-1347,Th3P4,"P, Th",2,0.0,Cubic,220,I-43d,0.2616999999999994,False,False
mp-19987,Pa3Sb4,"Pa, Sb",2,0.0,Cubic,220,I-43d,0.0,False,True
mp-30892,Ba4Bi3,"Ba, Bi",2,0.0,Cubic,220,I-43d,0.0,False,True
mp-683,Pr2C3,"C, Pr",2,0.0,Cubic,220,I-43d,0.0,False,True
mp-1209671,Pu3Se4,"Pu, Se",2,0.0,Cubic,220,I-43d,0.0,True,True
mp-567978,Pa3P4,"P, Pa",2,0.0,Cubic,220,I-43d,0.0,False,True
mp-722,Pr3Se4,"Pr, Se",2,0.018690621098901516,Cubic,220,I-43d,0.0,False,True
mp-570606,Pr4Ge3,"Ge, Pr",2,0.0,Cubic,220,I-43d,0.0,False,True
mp-12052,Er4Sb3,"Er, Sb",2,0.052221945178569484,Cubic,220,I-43d,0.0,False,True
mp-571144,Sm3Te4,"Sm, Te",2,0.05075951035713899,Cubic,220,I-43d,0.0,False,True
mp-568959,La4As3,"As, La",2,0.04012311285714176,Cubic,220,I-43d,0.0,False,True
mp-2038,Sm3S4,"S, Sm",2,0.04255605750000235,Cubic,220,I-43d,0.0,False,True
mp-20680,Ce4Sb3,"Ce, Sb",2,0.0011583892857167655,Cubic,220,I-43d,0.0,False,True
mp-1344,Sm3Se4,"Se, Sm",2,0.04774414499999935,Cubic,220,I-43d,0.0,False,True
mp-11607,Si3N4,"N, Si",2,0.09949754000000155,Cubic,220,I-43d,4.026700000000001,True,False
mp-672292,Gd3Se4,"Gd, Se",2,0.044679209642854545,Cubic,220,I-43d,0.0,False,True
mp-2622,Pa3As4,"As, Pa",2,0.0,Cubic,220,I-43d,0.0,False,True
mp-20328,U3Se4,"Se, U",2,0.03798534571428469,Cubic,220,I-43d,0.0,False,True
mp-21011,Ce4As3,"As, Ce",2,0.023445114285717494,Cubic,220,I-43d,0.0,False,True
mp-23196,U3Bi4,"Bi, U",2,0.047068937142859646,Cubic,220,I-43d,0.0,False,True
mp-1197547,Li15Pd4,"Li, Pd",2,0.0,Cubic,220,I-43d,0.0,False,True
mp-571281,Ge3N4,"Ge, N",2,0.06347081571428603,Cubic,220,I-43d,1.6238000000000001,True,False
mp-567920,Ti4P3,"P, Ti",2,0.022924354404763037,Cubic,220,I-43d,0.0,False,True
mp-567395,Li15Au4,"Au, Li",2,0.0,Cubic,220,I-43d,0.0,False,True
mp-14266,Cu15Si4,"Cu, Si",2,0.0,Cubic,220,I-43d,0.0,False,True
mp-23283,Sm4Bi3,"Bi, Sm",2,0.02059791750000084,Cubic,220,I-43d,0.0,False,True
mp-1223,La4Sb3,"La, Sb",2,0.005947330000005024,Cubic,220,I-43d,0.0,False,True
mp-556095,Dy3S4,"Dy, S",2,0.07355259214286036,Cubic,220,I-43d,0.0,False,True
mp-571336,La4Pb3,"La, Pb",2,0.0,Cubic,220,I-43d,0.0,False,True
mp-9544,Er2C3,"C, Er",2,0.05771427859999978,Cubic,220,I-43d,0.0,False,True
mp-1382,Ce3S4,"Ce, S",2,0.008399302142859,Cubic,220,I-43d,0.0,False,True
mp-20181,Ce2C3,"C, Ce",2,0.0,Cubic,220,I-43d,0.0,False,True
mp-568841,Np3Te4,"Np, Te",2,0.0,Cubic,220,I-43d,0.0,False,True
mp-24202,Th4H15,"H, Th",2,0.0,Cubic,220,I-43d,0.0,False,True
mp-23252,Ce4Bi3,"Bi, Ce",2,0.0,Cubic,220,I-43d,0.0,False,True
mp-23175,Nd4Bi3,"Bi, Nd",2,0.014698113571427918,Cubic,220,I-43d,0.0,False,True
mp-626,La4Rh3,"La, Rh",2,0.0,Cubic,220,I-43d,0.0,False,True
mp-1188564,Np2C3,"C, Np",2,0.04224445999999915,Cubic,220,I-43d,0.0,False,True
mp-606,U3As4,"As, U",2,0.0,Cubic,220,I-43d,0.0,False,True
mp-2365,Pr4As3,"As, Pr",2,0.051068456904761916,Cubic,220,I-43d,0.0,False,True
mp-2238,Dy2C3,"C, Dy",2,0.03391553786666712,Cubic,220,I-43d,0.0,False,True
mp-9545,Tm2C3,"C, Tm",2,0.06732393390000002,Cubic,220,I-43d,0.0,False,True
mp-1188514,Th2C3,"C, Th",2,0.0,Cubic,220,I-43d,0.0,False,True
mp-568098,Nd3Se4,"Nd, Se",2,0.02160930089285884,Cubic,220,I-43d,0.0,False,True
mp-787,U3P4,"P, U",2,0.0,Cubic,220,I-43d,0.0,False,True
mp-568285,Np3As4,"As, Np",2,0.0019532400000059624,Cubic,220,I-43d,0.0,False,True
mp-567082,Ti4As3,"As, Ti",2,0.022464771250000126,Cubic,220,I-43d,0.0,False,True
mp-392,U3Sb4,"Sb, U",2,0.0,Cubic,220,I-43d,0.0,False,True
mp-1103738,Eu3S4,"Eu, S",2,0.0,Cubic,220,I-43d,0.0,False,True
mp-567370,Ce3Se4,"Ce, Se",2,0.0,Cubic,220,I-43d,0.0,False,True
mp-15319,Lu2C3,"C, Lu",2,0.08779652878000022,Cubic,220,I-43d,0.0,False,True
mp-1208911,Sm4As3,"As, Sm",2,0.06634869499999851,Cubic,220,I-43d,0.0,True,True
mp-2127,Pr3Te4,"Pr, Te",2,0.01149742571428547,Cubic,220,I-43d,0.0,False,True
mp-2124,Ho4Sb3,"Ho, Sb",2,0.04388706642857443,Cubic,220,I-43d,0.0,False,True
mp-569849,Li15Si4,"Li, Si",2,0.0,Cubic,220,I-43d,0.0,False,True
mp-7024,Tb2C3,"C, Tb",2,0.022087051750000697,Cubic,220,I-43d,0.0,False,True
mp-569335,Sm2C3,"C, Sm",2,0.0,Cubic,220,I-43d,0.0,False,True
mp-530,Nd4Sb3,"Nd, Sb",2,0.014205981785714528,Cubic,220,I-43d,0.0,False,True
mp-2332,Ho2C3,"C, Ho",2,0.04886741976000053,Cubic,220,I-43d,0.0,False,True
mp-1209614,Pu4Sb3,"Pu, Sb",2,0.0,Cubic,220,I-43d,0.0,True,True
mp-367,Sm4Sb3,"Sb, Sm",2,0.022754683571427847,Cubic,220,I-43d,0.0,False,True
mp-1213824,Ce4Ge3,"Ce, Ge",2,0.0,Cubic,220,I-43d,0.0,True,True
mp-1484,Pr4Sb3,"Pr, Sb",2,0.010006887499997674,Cubic,220,I-43d,0.0,False,True
mp-1104641,Eu4Bi3,"Bi, Eu",2,0.0,Cubic,220,I-43d,0.0,False,True
mp-568808,Tb3Se4,"Se, Tb",2,0.05226242035714357,Cubic,220,I-43d,0.0,False,True
mp-552,Th3Sb4,"Sb, Th",2,0.0,Cubic,220,I-43d,0.03819999999999979,False,False
mp-30893,Sr4Bi3,"Bi, Sr",2,0.0,Cubic,220,I-43d,0.0,False,True
mp-1449,Pr3S4,"Pr, S",2,0.03379994107142892,Cubic,220,I-43d,0.0,False,True
mp-571400,Dy3Se4,"Dy, Se",2,0.05813880142857286,Cubic,220,I-43d,0.0,False,True
mp-23314,Pr4Bi3,"Bi, Pr",2,0.010747477500003377,Cubic,220,I-43d,0.0,False,True
mp-30794,Na15Sn4,"Na, Sn",2,0.0,Cubic,220,I-43d,0.0,False,True
mp-1800,Nd2C3,"C, Nd",2,0.0,Cubic,220,I-43d,0.0,False,True
mp-11660,Hf3N4,"Hf, N",2,0.06918367607143239,Cubic,220,I-43d,1.0259,False,False
mp-22422,Ce3Te4,"Ce, Te",2,0.0,Cubic,220,I-43d,0.0,False,True
mp-1966,Cu3As,"As, Cu",2,0.0029220999999992614,Cubic,220,I-43d,0.0,False,True
mp-382,Th3As4,"As, Th",2,0.0,Cubic,220,I-43d,0.2713000000000001,False,False
mp-1189998,Gd2C3,"C, Gd",2,0.0,Cubic,220,I-43d,0.0,False,True
mp-20520,U3Te4,"Te, U",2,0.03803649761905348,Cubic,220,I-43d,0.0,False,True
mp-570181,Np3Se4,"Np, Se",2,0.03445338124999964,Cubic,220,I-43d,0.0,False,True
mp-23270,Th3Bi4,"Bi, Th",2,0.0,Cubic,220,I-43d,0.09210000000000029,False,False
mp-1214616,Ba4Ge23,"Ba, Ge",2,0.05638644611111143,Cubic,223,Pm-3n,0.0,True,True
mp-30424,Zn3Au,"Au, Zn",2,0.0,Cubic,223,Pm-3n,0.0,False,True
mp-2496,Cs4Sn23,"Cs, Sn",2,0.0,Cubic,223,Pm-3n,0.0,False,True
mp-729,Cr3Si,"Cr, Si",2,0.0,Cubic,223,Pm-3n,0.0,False,True
mp-1664,V3Pd,"Pd, V",2,0.0,Cubic,223,Pm-3n,0.0,False,True
mp-640551,Ba4Si23,"Ba, Si",2,0.08625269166666705,Cubic,223,Pm-3n,0.0,False,True
mp-1932,Nb3Os,"Nb, Os",2,0.0,Cubic,223,Pm-3n,0.0,False,True
mp-24659,UH3,"H, U",2,0.011184126562497454,Cubic,223,Pm-3n,0.0,False,True
mp-2211,V3Pt,"Pt, V",2,0.0,Cubic,223,Pm-3n,0.0,False,True
mp-557591,SiO2,"O, Si",2,0.06575222069444564,Cubic,223,Pm-3n,5.6246,True,False
mp-839,V3Au,"Au, V",2,0.0,Cubic,223,Pm-3n,0.0,False,True
mp-1458,Nb3Ir,"Ir, Nb",2,0.0,Cubic,223,Pm-3n,0.0,False,True
mp-2663,Nb3Pt,"Nb, Pt",2,0.0,Cubic,223,Pm-3n,0.0,False,True
mp-11027,Cs3Hg20,"Cs, Hg",2,0.0023572880150964926,Cubic,223,Pm-3n,0.0,False,True
mp-2339,Ti3Pt,"Pt, Ti",2,0.0,Cubic,223,Pm-3n,0.0,False,True
mp-30788,SnMo3,"Mo, Sn",2,0.05509164124999799,Cubic,223,Pm-3n,0.0,False,True
mp-569249,Ta3Au,"Au, Ta",2,0.0,Cubic,223,Pm-3n,0.0,False,True
mp-1387,AlV3,"Al, V",2,0.0,Cubic,223,Pm-3n,0.0,False,True
mp-1555,V3Sb,"Sb, V",2,0.0,Cubic,223,Pm-3n,0.0,False,True
mp-2354,Ti3Hg,"Hg, Ti",2,0.0,Cubic,223,Pm-3n,0.0,False,True
mp-544,Ti3Ir,"Ir, Ti",2,0.0,Cubic,223,Pm-3n,0.0,False,True
mp-30186,Ba3Si23,"Ba, Si",2,0.08594770475961688,Cubic,223,Pm-3n,0.0,True,True
mp-1604,Pt3O4,"O, Pt",2,0.0,Cubic,223,Pm-3n,0.0,False,True
mp-2670,Nb3Ga,"Ga, Nb",2,0.05837239187500032,Cubic,223,Pm-3n,0.0,False,True
mp-639512,SiO2,"O, Si",2,0.009568870434783605,Cubic,223,Pm-3n,5.6163,True,False
mp-186,Na4Si23,"Na, Si",2,0.026209941851851326,Cubic,223,Pm-3n,0.0,False,True
mp-13909,K4Sn23,"K, Sn",2,0.0,Cubic,223,Pm-3n,0.0,False,True
mp-505570,PaH3,"H, Pa",2,0.0,Cubic,223,Pm-3n,0.0,False,True
mp-1275,SiMo3,"Mo, Si",2,0.0,Cubic,223,Pm-3n,0.0,False,True
mp-2567,V3Si,"Si, V",2,0.0,Cubic,223,Pm-3n,0.0,False,True
mp-27800,K4Ge23,"Ge, K",2,0.0004955814197522557,Cubic,223,Pm-3n,0.0,False,True
mp-531,K4Si23,"K, Si",2,0.010719426018518163,Cubic,223,Pm-3n,0.0,False,True
mp-1080569,Tl3Au,"Au, Tl",2,0.06940479416666534,Cubic,223,Pm-3n,0.0,True,True
mp-30871,Ta3Sn,"Sn, Ta",2,0.0,Cubic,223,Pm-3n,0.0,False,True
mp-568014,Nb3Bi,"Bi, Nb",2,0.020126058749999842,Cubic,223,Pm-3n,0.0,False,True
mp-1209551,Rb4Ge23,"Ge, Rb",2,0.0,Cubic,223,Pm-3n,0.0,True,True
mp-21342,V3Sn,"Sn, V",2,0.0,Cubic,223,Pm-3n,0.0,False,True
mp-20685,Cr3Ge,"Cr, Ge",2,0.09220284625000019,Cubic,223,Pm-3n,0.0,False,True
mp-1585,V3Co,"Co, V",2,0.0,Cubic,223,Pm-3n,0.0,False,True
mp-1578,V3Rh,"Rh, V",2,0.0,Cubic,223,Pm-3n,0.0,False,True
mp-1221,V3Ge,"Ge, V",2,0.0,Cubic,223,Pm-3n,0.0,False,True
mp-801,Mo3Os,"Mo, Os",2,0.0017573587499981613,Cubic,223,Pm-3n,0.0,False,True
mp-1326,Nb3Sn,"Nb, Sn",2,0.0,Cubic,223,Pm-3n,0.0,False,True
mp-22060,Nb3In,"In, Nb",2,0.0,Cubic,223,Pm-3n,0.0,False,True
mp-1373,Nb3Ge,"Ge, Nb",2,0.053666631666667186,Cubic,223,Pm-3n,0.0,False,True
mp-259,AlMo3,"Al, Mo",2,0.0,Cubic,223,Pm-3n,0.0,False,True
mp-7226,V3Ni,"Ni, V",2,0.0,Cubic,223,Pm-3n,0.0,False,True
mp-2006,V3Ir,"Ir, V",2,0.0,Cubic,223,Pm-3n,0.0,False,True
mp-1200220,Al3Ir,"Al, Ir",2,0.09830075218750167,Cubic,223,Pm-3n,0.0,False,True
mp-1630,Zr3Hg,"Hg, Zr",2,0.0,Cubic,223,Pm-3n,0.0,False,True
mp-504970,UH3,"H, U",2,0.0,Cubic,223,Pm-3n,0.0,False,True
mp-1545,Nb3Rh,"Nb, Rh",2,0.0,Cubic,223,Pm-3n,0.0,False,True
mp-11263,Zr3Au,"Au, Zr",2,0.0,Cubic,223,Pm-3n,0.0,False,True
mp-1079796,Ti3Pd,"Pd, Ti",2,0.00042632083333593584,Cubic,223,Pm-3n,0.0,True,True
mp-1079399,V3Fe,"Fe, V",2,0.0,Cubic,223,Pm-3n,0.0,False,True
mp-11026,Rb3Hg20,"Hg, Rb",2,0.012804760491146427,Cubic,223,Pm-3n,0.0,False,True
mp-2377,GaMo3,"Ga, Mo",2,0.0,Cubic,223,Pm-3n,0.0,False,True
mp-1272,Cr3Ru,"Cr, Ru",2,0.08198951375000263,Cubic,223,Pm-3n,0.0,False,True
mp-1120,Mo3Ir,"Ir, Mo",2,0.06501973499999991,Cubic,223,Pm-3n,0.0,False,True
mp-570751,Nb3Te,"Nb, Te",2,0.045607491250001075,Cubic,223,Pm-3n,0.0,False,True
mp-796,Nb3Al,"Al, Nb",2,0.0409174080000021,Cubic,223,Pm-3n,0.0,False,True
mp-1232,Mo3Pt,"Mo, Pt",2,0.076285793750003,Cubic,223,Pm-3n,0.0,False,True
mp-1206445,ReW3,"Re, W",2,0.04313129187499953,Cubic,223,Pm-3n,0.0,True,True
mp-557024,SiO2,"O, Si",2,0.07088209569444537,Cubic,223,Pm-3n,5.6788,True,False
mp-2053,Nb3Sb,"Nb, Sb",2,0.0,Cubic,223,Pm-3n,0.0,False,True
mp-2752,Nb3Au,"Au, Nb",2,0.003468576250003963,Cubic,223,Pm-3n,0.0,False,True
mp-541,Ta3Sb,"Sb, Ta",2,0.0,Cubic,223,Pm-3n,0.0,False,True
mp-30876,Zr3Sn,"Sn, Zr",2,0.028289383749999786,Cubic,223,Pm-3n,0.0,False,True
mp-292,V3As,"As, V",2,0.0,Cubic,223,Pm-3n,0.0,False,True
mp-22568,V3Ga,"Ga, V",2,0.0,Cubic,223,Pm-3n,0.0,False,True
mp-1786,Ti3Au,"Au, Ti",2,0.0,Cubic,223,Pm-3n,0.0,False,True
mp-1412,Ti3Sb,"Sb, Ti",2,0.0,Cubic,223,Pm-3n,0.0,False,True
mp-494,GeMo3,"Ge, Mo",2,0.0,Cubic,223,Pm-3n,0.0,False,True
mp-1193170,LaZn13,"La, Zn",2,0.0,Cubic,226,Fm-3c,0.0,False,True
mp-784,KZn13,"K, Zn",2,0.0,Cubic,226,Fm-3c,0.0,False,True
mp-397,KCd13,"Cd, K",2,0.0,Cubic,226,Fm-3c,0.0,False,True
mp-1194288,PaBe13,"Be, Pa",2,0.0,Cubic,226,Fm-3c,0.0,False,True
mp-1194443,LaCu13,"Cu, La",2,0.0,Cubic,226,Fm-3c,0.0,False,True
mp-31189,DyBe13,"Be, Dy",2,0.0,Cubic,226,Fm-3c,0.0,False,True
mp-2080,SrBe13,"Be, Sr",2,0.0,Cubic,226,Fm-3c,0.0,False,True
mp-1878,HfBe13,"Be, Hf",2,0.0,Cubic,226,Fm-3c,0.0,False,True
mp-950,NaZn13,"Na, Zn",2,0.0,Cubic,226,Fm-3c,0.0,False,True
mp-457,CeBe13,"Be, Ce",2,0.0,Cubic,226,Fm-3c,0.0,False,True
mp-672227,CaZn13,"Ca, Zn",2,0.005347061428570443,Cubic,226,Fm-3c,0.0,False,True
mp-30442,NpBe13,"Be, Np",2,0.0,Cubic,226,Fm-3c,0.0,False,True
mp-672225,BaZn13,"Ba, Zn",2,0.0,Cubic,226,Fm-3c,0.0,False,True
mp-672707,SrZn13,"Sr, Zn",2,0.0,Cubic,226,Fm-3c,0.0,False,True
mp-1193737,LiZn13,"Li, Zn",2,0.0,Cubic,226,Fm-3c,0.0,False,True
mp-976039,LuBe13,"Be, Lu",2,0.0,Cubic,226,Fm-3c,0.0,False,True
mp-1208596,SmBe13,"Be, Sm",2,0.0,Cubic,226,Fm-3c,0.0,True,True
mp-1194109,EuBe13,"Be, Eu",2,0.0,Cubic,226,Fm-3c,0.0,False,True
mp-1193251,LaBe13,"Be, La",2,0.0,Cubic,226,Fm-3c,0.0,False,True
mp-779582,Rb19O3,"O, Rb",2,0.04257345539772617,Cubic,226,Fm-3c,0.0,True,True
mp-669703,EuZn13,"Eu, Zn",2,0.004076210178570516,Cubic,226,Fm-3c,0.0,False,True
mp-1194291,GdBe13,"Be, Gd",2,0.0,Cubic,226,Fm-3c,0.0,False,True
mp-30425,BaBe13,"Ba, Be",2,0.03836030214285735,Cubic,226,Fm-3c,0.0,False,True
mp-1193534,YBe13,"Be, Y",2,0.0,Cubic,226,Fm-3c,0.0,False,True
mp-855,MgBe13,"Be, Mg",2,0.0005214846428569508,Cubic,226,Fm-3c,0.0,False,True
mp-1713,CsCd13,"Cd, Cs",2,0.0,Cubic,226,Fm-3c,0.0,False,True
mp-1193889,HoBe13,"Be, Ho",2,0.0,Cubic,226,Fm-3c,0.0,False,True
mp-30559,LaCo13,"Co, La",2,0.0,Cubic,226,Fm-3c,0.0,False,True
mp-12615,TbBe13,"Be, Tb",2,0.0,Cubic,226,Fm-3c,0.0,False,True
mp-675332,InI4,"I, In",2,0.08154232649999926,Cubic,226,Fm-3c,0.0,True,True
mp-1040,RbCd13,"Cd, Rb",2,0.0,Cubic,226,Fm-3c,0.0,False,True
mp-2504,RbZn13,"Rb, Zn",2,0.0,Cubic,226,Fm-3c,0.0,False,True
mp-1163,UBe13,"Be, U",2,0.0,Cubic,226,Fm-3c,0.0,False,True
mp-1193090,TmBe13,"Be, Tm",2,0.0,Cubic,226,Fm-3c,0.0,False,True
mp-39008,AlBr4,"Al, Br",2,0.01800427750000111,Cubic,226,Fm-3c,0.0,True,True
mp-337,PuBe13,"Be, Pu",2,0.0,Cubic,226,Fm-3c,0.0,False,True
mp-642,BaCu13,"Ba, Cu",2,0.0029819446428578367,Cubic,226,Fm-3c,0.0,False,True
mp-30445,ZrBe13,"Be, Zr",2,0.0,Cubic,226,Fm-3c,0.0,False,True
mp-973809,NdBe13,"Be, Nd",2,0.0,Cubic,226,Fm-3c,0.0,False,True
mp-1193092,ErBe13,"Be, Er",2,0.0,Cubic,226,Fm-3c,0.0,False,True
mp-972891,ScBe13,"Be, Sc",2,0.0,Cubic,226,Fm-3c,0.0,False,True
mp-1193529,PrBe13,"Be, Pr",2,0.0,Cubic,226,Fm-3c,0.0,False,True
mp-1845,CaBe13,"Be, Ca",2,0.0,Cubic,226,Fm-3c,0.0,False,True
mp-1562,ThBe13,"Be, Th",2,0.0,Cubic,226,Fm-3c,0.0,False,True
mp-865246,EuBi3,"Bi, Eu",2,0.0,Cubic,221,Pm-3m,0.0,True,True
mp-11375,EuHg,"Eu, Hg",2,0.0,Cubic,221,Pm-3m,0.0,False,True
mp-863257,LiGa3,"Ga, Li",2,0.008717875749999493,Cubic,221,Pm-3m,0.0,True,True
mp-1571,PrPd3,"Pd, Pr",2,0.0,Cubic,221,Pm-3m,0.0,False,True
mp-11256,ScAu,"Au, Sc",2,0.0,Cubic,221,Pm-3m,0.0,False,True
mp-1185416,LiSb3,"Li, Sb",2,0.04740753895833549,Cubic,221,Pm-3m,0.0,True,True
mp-11237,ScAg,"Ag, Sc",2,0.0,Cubic,221,Pm-3m,0.0,False,True
mp-1186501,Pm3Ga,"Ga, Pm",2,0.0,Cubic,221,Pm-3m,0.0,True,True
mp-23159,SrBi3,"Bi, Sr",2,0.0,Cubic,221,Pm-3m,0.0,False,True
mp-1183995,GaCu3,"Cu, Ga",2,0.005969347499998889,Cubic,221,Pm-3m,0.0,True,True
mp-875,AlOs,"Al, Os",2,0.012587037500004783,Cubic,221,Pm-3m,0.0,False,True
mp-1185037,LaY3,"La, Y",2,0.07751701124999855,Cubic,221,Pm-3m,0.0,True,True
mp-1264,CdAu3,"Au, Cd",2,0.011046036249993563,Cubic,221,Pm-3m,0.0,False,True
mp-20903,PrIn3,"In, Pr",2,0.0,Cubic,221,Pm-3m,0.0,False,True
mp-2212,ScCo,"Co, Sc",2,0.0,Cubic,221,Pm-3m,0.0,False,True
mp-1027,HfRh3,"Hf, Rh",2,0.0,Cubic,221,Pm-3m,0.0,False,True
mp-1184894,In3Sn,"In, Sn",2,0.06192206999999783,Cubic,221,Pm-3m,0.0,True,True
mp-954,BaB6,"B, Ba",2,0.0,Cubic,221,Pm-3m,0.0,False,True
mp-1184378,EuIn3,"Eu, In",2,0.0,Cubic,221,Pm-3m,0.0,True,True
mp-646,PrCd,"Cd, Pr",2,0.0,Cubic,221,Pm-3m,0.0,False,True
mp-1187064,Th3In,"In, Th",2,0.0,Cubic,221,Pm-3m,0.0,True,True
mp-20735,Ce3Sn,"Ce, Sn",2,0.0,Cubic,221,Pm-3m,0.0,False,True
mp-11546,TiPd,"Pd, Ti",2,0.07338960750000112,Cubic,221,Pm-3m,0.0,False,True
mp-981215,Zn3Co,"Co, Zn",2,0.05560045465909269,Cubic,221,Pm-3m,0.0,True,True
mp-975388,NdDy3,"Dy, Nd",2,0.039652511875001295,Cubic,221,Pm-3m,0.0,True,True
mp-1830,NpTe,"Np, Te",2,0.07426435265625564,Cubic,221,Pm-3m,0.0,False,True
mp-1780,ScRh,"Rh, Sc",2,0.0,Cubic,221,Pm-3m,0.0,False,True
mp-1183304,Ba3Na,"Ba, Na",2,0.05499263104166596,Cubic,221,Pm-3m,0.0,True,True
mp-1187447,ThPa3,"Pa, Th",2,0.07677548249999688,Cubic,221,Pm-3m,0.0,True,True
mp-1941,GaNi,"Ga, Ni",2,0.042973296904763814,Cubic,221,Pm-3m,0.0,False,True
mp-1186656,PmTm3,"Pm, Tm",2,0.056163663749998705,Cubic,221,Pm-3m,0.0,True,True
mp-1186094,Na3Zn,"Na, Zn",2,0.09190577780835607,Cubic,221,Pm-3m,0.0,True,True
mp-559435,CoF3,"Co, F",2,0.0046032418749994974,Cubic,221,Pm-3m,0.0,True,True
mp-11290,CaSn3,"Ca, Sn",2,0.0,Cubic,221,Pm-3m,0.0,False,True
mp-20516,InPt3,"In, Pt",2,0.0,Cubic,221,Pm-3m,0.0,False,True
mp-1186917,SbAu3,"Au, Sb",2,0.08279582083333281,Cubic,221,Pm-3m,0.0,True,True