material_id,formula,elements,num_elements,energy_above_hull,crystal_system,spacegroup_number,spacegroup_symbol,band_gap,theoretical,is_metal
mp-28885,PSe,"P, Se",2,0.0,Monoclinic,14,P2_1/c,2.2420999999999998,False,False
mp-1190529,BPd5,"B, Pd",2,0.0,Monoclinic,14,P2_1/c,0.0,True,True
mp-619461,WO3,"O, W",2,0.007099640937500595,Monoclinic,14,P2_1/c,1.3708,False,False
mp-760250,VF5,"F, V",2,0.006889189583333177,Monoclinic,14,P2_1/c,2.8251,True,False
mp-2682,Sb2Rh,"Rh, Sb",2,0.0,Monoclinic,14,P2_1/c,0.0,False,True
mp-30590,LaCu6,"Cu, La",2,0.011282394375005111,Monoclinic,14,P2_1/c,0.0,False,True
mp-13567,CeS2,"Ce, S",2,0.0009275383333324783,Monoclinic,14,P2_1/c,0.0,False,True
mp-1853,Sr3P14,"P, Sr",2,0.0,Monoclinic,14,P2_1/c,1.6551,False,False
mp-29866,SnCl4,"Cl, Sn",2,0.0,Monoclinic,14,P2_1/c,3.565,False,False
mp-619071,PbCl2,"Cl, Pb",2,0.02306115500000061,Monoclinic,14,P2_1/c,3.0504999999999995,False,False
mp-1369219,BiF5,"Bi, F",2,0.014831697083333317,Monoclinic,14,P2_1/c,1.8671,True,False
mp-541053,SiI2,"I, Si",2,0.02587801555555469,Monoclinic,14,P2_1/c,2.295,False,False
mp-559771,Pr6O11,"O, Pr",2,0.05376328772058869,Monoclinic,14,P2_1/c,0.0,False,True
mp-1247,Sb2Ir,"Ir, Sb",2,0.0,Monoclinic,14,P2_1/c,0.5099,False,False
mp-19033,WO3,"O, W",2,0.007246704062499276,Monoclinic,14,P2_1/c,1.657,False,False
mp-27358,Se2O5,"O, Se",2,0.07632394964285538,Monoclinic,14,P2_1/c,2.9034,False,False
mp-1095546,ReO2,"O, Re",2,0.0764806311111137,Monoclinic,14,P2_1/c,0.0,False,True
mp-29179,SnCl2,"Cl, Sn",2,0.0,Monoclinic,14,P2_1/c,3.1002,False,False
mp-29502,Al2Te3,"Al, Te",2,0.0,Monoclinic,14,P2_1/c,1.7992000000000004,False,False
mp-1102900,Ag2S,"Ag, S",2,0.045494641666667945,Monoclinic,14,P2_1/c,1.1839999999999997,False,False
mp-1605,Ag3O4,"Ag, O",2,0.0,Monoclinic,14,P2_1/c,0.0,False,True
mp-1021522,VO2,"O, V",2,0.07541255291665117,Monoclinic,14,P2_1/c,0.6415000000000002,True,False
mp-540622,RhF5,"F, Rh",2,0.0,Monoclinic,14,P2_1/c,0.0,False,True
mp-30954,GaI3,"Ga, I",2,0.0,Monoclinic,14,P2_1/c,2.3721,False,False
mp-1536,KSb,"K, Sb",2,0.0,Monoclinic,14,P2_1/c,0.6095000000000002,False,False
mp-430,TiO2,"O, Ti",2,0.03948350083333452,Monoclinic,14,P2_1/c,2.2317,False,False
mp-30930,AlI3,"Al, I",2,0.0,Monoclinic,14,P2_1/c,3.2639,False,False
mp-1196514,KS3,"K, S",2,0.0,Monoclinic,14,P2_1/c,1.8888999999999998,False,False
mp-755066,Al2O3,"Al, O",2,0.08892886000000022,Monoclinic,14,P2_1/c,4.176499999999999,True,False
mp-542570,AsSe,"As, Se",2,0.0,Monoclinic,14,P2_1/c,1.3679999999999999,False,False
mp-29767,Pt5Se4,"Pt, Se",2,0.0,Monoclinic,14,P2_1/c,0.0,False,True
mp-542630,P4S9,"P, S",2,0.0,Monoclinic,14,P2_1/c,2.649,False,False
mp-1359089,Sb2S5,"S, Sb",2,0.08012190446428669,Monoclinic,14,P2_1/c,0.0,True,True
mp-567789,InI3,"I, In",2,0.0,Monoclinic,14,P2_1/c,2.2833,False,False
mp-647589,La6Ge11,"Ge, La",2,0.0008904579411748159,Monoclinic,14,P2_1/c,0.0,True,True
mp-27647,AuCl3,"Au, Cl",2,0.0,Monoclinic,14,P2_1/c,1.3606,False,False
mp-757854,VF5,"F, V",2,0.08386159083333311,Monoclinic,14,P2_1/c,2.8744000000000005,True,False
mp-1095294,SiS2,"S, Si",2,0.003013171666665926,Monoclinic,14,P2_1/c,3.3924000000000003,False,False
mp-759987,Mn2F7,"F, Mn",2,0.06402446277777862,Monoclinic,14,P2_1/c,0.2623000000000002,True,False
mp-554340,CrF2,"Cr, F",2,0.0,Monoclinic,14,P2_1/c,0.006399999999999739,False,False
mp-31104,KBi,"Bi, K",2,0.0,Monoclinic,14,P2_1/c,0.4058999999999999,False,False
mp-1101189,VF5,"F, V",2,0.057393259583332856,Monoclinic,14,P2_1/c,2.7828,True,False
mp-27747,PdI2,"I, Pd",2,0.0,Monoclinic,14,P2_1/c,0.9294000000000002,False,False
mp-568024,ICl,"Cl, I",2,0.005888187500000086,Monoclinic,14,P2_1/c,1.4968000000000001,False,False
mp-1095637,PrP2,"P, Pr",2,0.016432842499998657,Monoclinic,14,P2_1/c,0.0,False,True
mp-974434,RuF4,"F, Ru",2,0.0,Monoclinic,14,P2_1/c,0.18130000000000002,False,False
mp-755,CoSb2,"Co, Sb",2,0.030628977777777067,Monoclinic,14,P2_1/c,0.0,False,True
mp-1198133,Y5Si4,"Si, Y",2,0.010283171388888235,Monoclinic,14,P2_1/c,0.0,False,True
mp-7904,CdP4,"Cd, P",2,0.0,Monoclinic,14,P2_1/c,0.6551,False,False
mp-200,LaP7,"La, P",2,0.0,Monoclinic,14,P2_1/c,0.7915999999999999,False,False
mp-1201738,SiO2,"O, Si",2,0.04590545208333374,Monoclinic,14,P2_1/c,5.5295000000000005,True,False
mp-978114,Sn5O6,"O, Sn",2,0.027862073636359952,Monoclinic,14,P2_1/c,1.7702,True,False
mp-1103658,LaS2,"La, S",2,0.0022752012499971386,Monoclinic,14,P2_1/c,0.6101999999999999,False,False
mp-561397,SO3,"O, S",2,0.0,Monoclinic,14,P2_1/c,5.1612,False,False
mp-568593,Pd34Se11,"Pd, Se",2,0.018530323370370638,Monoclinic,14,P2_1/c,0.0,False,True
mp-541341,PtF5,"F, Pt",2,0.004269665416661184,Monoclinic,14,P2_1/c,0.0,False,True
mp-572892,GeS2,"Ge, S",2,0.0,Monoclinic,14,P2_1/c,2.2648,False,False
mp-850131,NiS2,"Ni, S",2,0.021697538333333988,Monoclinic,14,P2_1/c,0.0,True,True
mp-2858,ZrO2,"O, Zr",2,0.0,Monoclinic,14,P2_1/c,3.5322,False,False
mp-1212012,K10Tl7,"K, Tl",2,0.0,Monoclinic,14,P2_1/c,0.0,True,True
mp-23288,AlBr3,"Al, Br",2,0.0,Monoclinic,14,P2_1/c,4.0992,False,False
mp-1196387,W3I8,"I, W",2,0.05296384094696904,Monoclinic,14,P2_1/c,1.064,False,False
mp-1204051,Na2O9,"Na, O",2,0.012218157840909072,Monoclinic,14,P2_1/c,0.0,True,True
mp-1374127,CrF5,"Cr, F",2,0.04603763833333385,Monoclinic,14,P2_1/c,1.1667999999999998,True,False
mp-765600,VF5,"F, V",2,0.013976630416666858,Monoclinic,14,P2_1/c,3.0625000000000004,True,False
mp-755211,CrO3,"Cr, O",2,0.07830964962499998,Monoclinic,14,P2_1/c,1.8552,True,False
mp-30970,Er12Co7,"Co, Er",2,0.0,Monoclinic,14,P2_1/c,0.0,False,True
mp-619575,ClF3,"Cl, F",2,0.0,Monoclinic,14,P2_1/c,2.5175,False,False
mp-769096,MnP4,"Mn, P",2,0.05289876899999957,Monoclinic,14,P2_1/c,0.0,True,True
mp-29014,P2S3,"P, S",2,0.011436145562498723,Monoclinic,14,P2_1/c,2.3245,False,False
mp-1194715,As2O3,"As, O",2,0.002161212749999919,Monoclinic,14,P2_1/c,3.6205999999999996,False,False
mp-630528,InS,"In, S",2,0.027837727499999687,Monoclinic,14,P2_1/c,0.4359000000000002,False,False
mp-570668,LaSe2,"La, Se",2,0.0,Monoclinic,14,P2_1/c,0.2386999999999997,False,False
mp-23261,I2O5,"I, O",2,0.0,Monoclinic,14,P2_1/c,2.7278,False,False
mp-1106184,MnB4,"B, Mn",2,0.006082310000000035,Monoclinic,14,P2_1/c,0.005300000000000082,False,False
mp-651155,TeI4,"I, Te",2,0.0024589340000003013,Monoclinic,14,P2_1/c,1.7073,False,False
mp-1190908,Ga9Rh2,"Ga, Rh",2,0.0031284404545450784,Monoclinic,14,P2_1/c,0.0,False,True
mp-7944,NaSb,"Na, Sb",2,0.0,Monoclinic,14,P2_1/c,0.6041000000000003,False,False
mp-634117,BH3,"B, H",2,0.01222323375000034,Monoclinic,14,P2_1/c,5.3252,False,False
mp-845,Cu5Sn4,"Cu, Sn",2,0.02435406944444196,Monoclinic,14,P2_1/c,0.0,False,True
mp-559956,Pr5O9,"O, Pr",2,0.07528477294642855,Monoclinic,14,P2_1/c,0.0,False,True
mp-2715,CoAs2,"As, Co",2,0.0,Monoclinic,14,P2_1/c,0.1722999999999999,False,False
mp-570796,SbCl5,"Cl, Sb",2,0.0,Monoclinic,14,P2_1/c,1.6912,False,False
mp-2084,Si5Ir3,"Ir, Si",2,0.0,Monoclinic,14,P2_1/c,0.9666999999999994,False,False
mp-776688,V2O3,"O, V",2,0.09538210775000167,Monoclinic,14,P2_1/c,1.2369000000000003,True,False
mp-1176433,MnF3,"F, Mn",2,0.050799068749999066,Monoclinic,14,P2_1/c,0.0,True,True
mp-1229,CuF2,"Cu, F",2,0.0,Monoclinic,14,P2_1/c,0.0,False,True
mp-27798,B4H5,"B, H",2,0.012353850434028146,Monoclinic,14,P2_1/c,2.8803,False,False
mp-1268079,SiO2,"O, Si",2,0.014876067968748075,Monoclinic,14,P2_1/c,5.6869,True,False
mp-1204579,NO3,"N, O",2,0.0,Monoclinic,14,P2_1/c,0.9199000000000002,False,False
mp-27645,ReCl5,"Cl, Re",2,0.05418821252314565,Monoclinic,14,P2_1/c,0.0,False,True
mp-636675,Ga2I3,"Ga, I",2,0.0,Monoclinic,14,P2_1/c,2.2709,False,False
mp-569224,SbI3,"I, Sb",2,0.02754711562500134,Monoclinic,14,P2_1/c,2.2057,False,False
mp-1191778,Al9Fe2,"Al, Fe",2,0.017882146818181788,Monoclinic,14,P2_1/c,0.0,False,True
mp-1180046,NiS2,"Ni, S",2,0.0,Monoclinic,14,P2_1/c,0.24040000000000017,True,False
mp-769108,NiP4,"Ni, P",2,0.07834155050000113,Monoclinic,14,P2_1/c,0.0,True,True
mp-1581,As2O3,"As, O",2,0.0016657115000011657,Monoclinic,14,P2_1/c,3.6306,False,False
mp-1212833,Er4C7,"C, Er",2,0.0,Monoclinic,14,P2_1/c,0.39120000000000044,True,False
mp-30233,Na3As7,"As, Na",2,0.0,Monoclinic,14,P2_1/c,1.428,False,False
mp-1592,Ag2Te,"Ag, Te",2,0.0,Monoclinic,14,P2_1/c,0.0,False,True
mp-15649,As2Ir,"As, Ir",2,0.0,Monoclinic,14,P2_1/c,0.8155000000000001,False,False
mp-29907,Te4Pd9,"Pd, Te",2,0.0,Monoclinic,14,P2_1/c,0.004400000000000404,False,False
mp-7943,LiAs,"As, Li",2,0.0,Monoclinic,14,P2_1/c,0.3285,False,False
mp-27628,Te3Cl2,"Cl, Te",2,0.0,Monoclinic,14,P2_1/c,1.3552,False,False
mp-30953,GaBr3,"Br, Ga",2,0.0,Monoclinic,14,P2_1/c,3.3559,False,False
mp-573622,Dy12Co7,"Co, Dy",2,0.0,Monoclinic,14,P2_1/c,0.0,False,True
mp-581212,Cu2S,"Cu, S",2,0.012637958263891136,Monoclinic,14,P2_1/c,0.2778999999999998,False,False
mp-1204039,CsSb,"Cs, Sb",2,0.0003872768750028399,Monoclinic,14,P2_1/c,0.5215999999999998,False,False
mp-28294,Sb11F43,"F, Sb",2,0.00046474858798895013,Monoclinic,14,P2_1/c,3.5092999999999996,False,False
mp-1207978,Tm4C7,"C, Tm",2,0.0,Monoclinic,14,P2_1/c,0.3698000000000006,True,False
mp-1209849,NdP2,"Nd, P",2,0.019454665416670736,Monoclinic,14,P2_1/c,0.0,True,True
mp-13568,NdS2,"Nd, S",2,0.0,Monoclinic,14,P2_1/c,0.3379000000000003,False,False
mp-1190647,Ge3F8,"F, Ge",2,0.0,Monoclinic,14,P2_1/c,4.2902,False,False
mp-570205,PrSe2,"Pr, Se",2,0.0,Monoclinic,14,P2_1/c,0.0,False,True
mp-29281,Th2P11,"P, Th",2,0.026122633119655347,Monoclinic,14,P2_1/c,0.32509999999999994,False,False
mp-29369,Sb7F29,"F, Sb",2,0.0,Monoclinic,14,P2_1/c,3.5953,False,False
mp-27697,ThI4,"I, Th",2,0.0,Monoclinic,14,P2_1/c,1.6178,False,False
mp-7262,ZnAs2,"As, Zn",2,0.0,Monoclinic,14,P2_1/c,0.22409999999999997,False,False
mp-33137,TcO2,"O, Tc",2,0.0,Monoclinic,14,P2_1/c,0.0,False,True
mp-23262,Bi2O3,"Bi, O",2,0.0,Monoclinic,14,P2_1/c,2.1944999999999997,False,False
mp-16488,Al9Co2,"Al, Co",2,0.0,Monoclinic,14,P2_1/c,0.0,False,True
mp-1180711,KO2,"K, O",2,0.020782375833333866,Monoclinic,14,P2_1/c,0.0,True,True
mp-985570,SiO2,"O, Si",2,0.008480523472224277,Monoclinic,14,P2_1/c,5.599,True,False
mp-23216,SnBr4,"Br, Sn",2,0.0,Monoclinic,14,P2_1/c,2.7107,False,False
mp-760312,VF5,"F, V",2,0.005471208541666606,Monoclinic,14,P2_1/c,2.8385999999999996,True,False
mp-574070,Cs4Pb9,"Cs, Pb",2,0.0,Monoclinic,14,P2_1/c,0.7601999999999998,False,False
mp-568483,NbCl5,"Cl, Nb",2,0.000738455138888483,Monoclinic,14,P2_1/c,2.2907,False,False
mp-32861,Rh3Se8,"Rh, Se",2,0.0016510090909065411,Monoclinic,14,P2_1/c,0.0,True,True
mp-29504,ClF,"Cl, F",2,0.07123128770833276,Monoclinic,14,P2_1/c,2.0897,False,False
mp-10487,RbSb,"Rb, Sb",2,0.0,Monoclinic,14,P2_1/c,0.7347000000000001,False,False
mp-504825,SeCl,"Cl, Se",2,0.01918104957031197,Monoclinic,14,P2_1/c,2.1951,False,False
mp-1232280,SmS2,"S, Sm",2,0.0,Monoclinic,14,P2_1/c,0.5285000000000002,True,False
mp-1101873,ErS2,"Er, S",2,0.026628828420140138,Monoclinic,14,P2_1/c,0.3512000000000004,False,False
mp-27990,B2H5,"B, H",2,0.007053553750000496,Monoclinic,14,P2_1/c,6.2615,False,False
mp-581942,CeCu6,"Ce, Cu",2,0.0,Monoclinic,14,P2_1/c,0.0,False,True
mp-1194773,SiS2,"S, Si",2,0.04442881111111063,Monoclinic,14,P2_1/c,2.8836999999999997,False,False
mp-31105,RbBi,"Bi, Rb",2,0.0,Monoclinic,14,P2_1/c,0.37770000000000015,False,False
mp-1154,Ho4C7,"C, Ho",2,0.0,Monoclinic,14,P2_1/c,0.4560999999999993,False,False
mp-618,Pd7Se2,"Pd, Se",2,0.018291630123457026,Monoclinic,14,P2_1/c,0.0,False,True
mp-641,As2S3,"As, S",2,6.126899999969737e-05,Monoclinic,14,P2_1/c,2.0989,False,False
mp-23170,IO2,"I, O",2,0.0061811170833312445,Monoclinic,14,P2_1/c,1.4625,False,False
mp-15177,Ho4C7,"C, Ho",2,0.004325589999999657,Monoclinic,14,P2_1/c,0.0,False,True
mp-570707,NdSe2,"Nd, Se",2,0.0005001326979154896,Monoclinic,14,P2_1/c,0.0,False,True
mp-1018891,PdCl2,"Cl, Pd",2,0.002497056666667774,Monoclinic,14,P2_1/c,0.5895,False,False
mp-556882,SiO2,"O, Si",2,0.010804162430556374,Monoclinic,14,P2_1/c,5.4389,True,False
mp-8200,AgP2,"Ag, P",2,0.0009195113636373264,Monoclinic,14,P2_1/c,0.6586999999999996,False,False
mp-1080303,CeSe2,"Ce, Se",2,0.08058847083333376,Monoclinic,14,P2_1/c,0.5051999999999999,True,False
mp-1379489,MoF5,"F, Mo",2,0.05805211958333345,Monoclinic,14,P2_1/c,1.926,True,False
mp-23185,XeF4,"F, Xe",2,0.0,Monoclinic,14,P2_1/c,2.8624,False,False
mp-15954,As2Rh,"As, Rh",2,0.0,Monoclinic,14,P2_1/c,0.2625000000000002,False,False
mp-542622,P4O7,"O, P",2,0.0413031133636359,Monoclinic,14,P2_1/c,4.054,False,False
mp-752602,BiBr3,"Bi, Br",2,0.0003405662500006734,Monoclinic,14,P2_1/c,2.8714,True,False
mp-570900,K4Sn9,"K, Sn",2,0.0,Monoclinic,14,P2_1/c,1.1220999999999997,False,False
mp-524,Ba3As14,"As, Ba",2,0.0,Monoclinic,14,P2_1/c,1.0907,False,False
mp-27342,Ge5F12,"F, Ge",2,9.456029411936129e-06,Monoclinic,14,P2_1/c,4.3594,False,False
mp-17407,Au3F8,"Au, F",2,0.0,Monoclinic,14,P2_1/c,0.3012999999999999,False,False
mp-30092,TiCl4,"Cl, Ti",2,0.0,Monoclinic,14,P2_1/c,3.1553,False,False
mp-1806,RbO3,"O, Rb",2,0.08383552124999927,Monoclinic,14,P2_1/c,0.8986,False,False
mp-570539,Rb3As7,"As, Rb",2,0.0031152961875005047,Monoclinic,14,P2_1/c,1.5282,False,False
mp-30969,Ho12Co7,"Co, Ho",2,0.0,Monoclinic,14,P2_1/c,0.0,False,True
mp-1105406,BaP3,"Ba, P",2,0.011488119375000494,Monoclinic,14,P2_1/c,1.3658000000000001,False,False
mp-30544,Mo5O14,"Mo, O",2,0.0076132399060142575,Monoclinic,14,P2_1/c,0.0,False,True
mp-1191262,Ga9Ir2,"Ga, Ir",2,0.0026553663636370572,Monoclinic,14,P2_1/c,0.0,False,True
mp-13961,NdAs2,"As, Nd",2,0.020310922500001993,Monoclinic,14,P2_1/c,0.039400000000000546,False,False
mp-15178,Lu4C7,"C, Lu",2,0.0,Monoclinic,14,P2_1/c,0.0,False,True
mp-1079720,AgO,"Ag, O",2,0.04234811749999956,Monoclinic,14,P2_1/c,0.11599999999999988,False,False
mp-760030,V5F11,"F, V",2,0.0754681857812507,Monoclinic,14,P2_1/c,0.6265000000000001,True,False
mp-27200,B13H19,"B, H",2,0.026613134975142394,Monoclinic,14,P2_1/c,2.7668999999999997,False,False
mp-567998,ICl,"Cl, I",2,0.0,Monoclinic,14,P2_1/c,1.8521999999999998,False,False
mp-755040,Cu2O3,"Cu, O",2,0.04610230725000086,Monoclinic,14,P2_1/c,0.0,True,True
mp-570989,UCl5,"Cl, U",2,0.0,Monoclinic,14,P2_1/c,0.3341,False,False
mp-540922,CrTe3,"Cr, Te",2,0.0,Monoclinic,14,P2_1/c,0.0,False,True
mp-30529,B5H11,"B, H",2,0.02219420865767141,Monoclinic,14,P2_1/c,4.6651,False,False
mp-561153,XeF3,"F, Xe",2,0.0,Monoclinic,14,P2_1/c,2.3756999999999997,False,False
mp-9530,Y4C7,"C, Y",2,0.004164988636363276,Monoclinic,14,P2_1/c,0.0,False,True
mp-569405,B3H5,"B, H",2,0.011612727504734188,Monoclinic,14,P2_1/c,3.6391,False,False
mp-1645,Al9Rh2,"Al, Rh",2,0.0,Monoclinic,14,P2_1/c,0.0,False,True
mp-1101783,Bi2Ir,"Bi, Ir",2,0.0,Monoclinic,14,P2_1/c,0.0,False,True
mp-1147714,P2S3,"P, S",2,0.03545111656250022,Monoclinic,14,P2_1/c,2.4551000000000003,True,False
mp-1945,NdCu6,"Cu, Nd",2,0.010675615000002026,Monoclinic,14,P2_1/c,0.0,False,True
mp-9588,LiP,"Li, P",2,0.0,Monoclinic,14,P2_1/c,0.8094999999999999,False,False
mp-542604,AsS,"As, S",2,0.024730568124999408,Monoclinic,14,P2_1/c,1.9737999999999998,False,False
mp-555096,PrS2,"Pr, S",2,0.0,Monoclinic,14,P2_1/c,0.3462999999999994,False,False
mp-1200885,Y4C7,"C, Y",2,0.0,Monoclinic,14,P2_1/c,0.6128,False,False
mp-1201338,V6O13,"O, V",2,0.04423242368421043,Monoclinic,14,P2_1/c,0.1772999999999998,False,False
mp-2650,P4S7,"P, S",2,0.0,Monoclinic,14,P2_1/c,2.7617,False,False
mp-1195922,EuP7,"Eu, P",2,0.0,Monoclinic,14,P2_1/c,0.37600000000000033,False,False
mp-726415,BaO2,"Ba, O",2,0.06990294791666418,Monoclinic,14,P2_1/c,3.6022,True,False
mp-727952,I3O8,"I, O",2,0.09968969204545353,Monoclinic,14,P2_1/c,0.0,False,True
mp-23305,EuI2,"Eu, I",2,0.008386589166666347,Monoclinic,14,P2_1/c,1.4092000000000002,False,False
mp-32967,Zr7Sb4,"Sb, Zr",2,0.0007834654545462172,Monoclinic,14,P2_1/c,0.0,True,True
mp-1011709,Cs2Se,"Cs, Se",2,0.00419251499999973,Monoclinic,14,P2_1/c,2.1827,True,False
mp-1197907,W2Br5,"Br, W",2,0.01608404869047675,Monoclinic,14,P2_1/c,0.8696,False,False
mp-753449,VF5,"F, V",2,0.013159975000000657,Monoclinic,14,P2_1/c,3.2396,True,False
mp-28860,P2Se5,"P, Se",2,0.020371351473215782,Monoclinic,14,P2_1/c,1.2912000000000001,False,False
mp-1102963,VO2,"O, V",2,0.04295680666665369,Monoclinic,14,P2_1/c,0.0,False,True
mp-628742,Cs5Sb8,"Cs, Sb",2,0.0,Monoclinic,14,P2_1/c,0.5847000000000002,False,False
mp-825726,WO3,"O, W",2,0.009396323437499632,Monoclinic,14,P2_1/c,1.6296,False,False
mp-1618,PPd6,"P, Pd",2,0.0,Monoclinic,14,P2_1/c,0.0,False,True
mp-1178386,CsTe4,"Cs, Te",2,0.0,Monoclinic,14,P2_1/c,0.5148999999999995,False,False
mp-352,HfO2,"Hf, O",2,0.0,Monoclinic,14,P2_1/c,4.0165,False,False
mp-15953,P2Rh,"P, Rh",2,0.0,Monoclinic,14,P2_1/c,0.37049999999999983,False,False
mp-28319,PtI2,"I, Pt",2,0.0,Monoclinic,14,P2_1/c,1.2328000000000001,False,False
mp-568080,CeP2,"Ce, P",2,0.002965294166667576,Monoclinic,14,P2_1/c,0.0,False,True
mp-574086,SiBr4,"Br, Si",2,5.669625000237488e-05,Monoclinic,14,P2_1/c,4.1127,False,False
mp-540943,SeBr,"Br, Se",2,0.06152715365234407,Monoclinic,14,P2_1/c,1.7553,False,False
mp-1183667,B4H5,"B, H",2,0.016330710434028006,Monoclinic,14,P2_1/c,2.8507,True,False
mp-2753,Tl4S3,"S, Tl",2,0.009123074126986985,Monoclinic,14,P2_1/c,0.8601000000000001,False,False
mp-850937,VF4,"F, V",2,0.0039764644999991106,Monoclinic,14,P2_1/c,1.5457,True,False
mp-2236,UIr,"Ir, U",2,0.0001575449999986489,Monoclinic,14,P2_1/c,0.0,True,True
mp-558247,Mo4O11,"Mo, O",2,0.0068658941190467004,Monoclinic,14,P2_1/c,0.03529999999999989,False,False
mp-755459,Rb2O,"O, Rb",2,0.01808626333333363,Monoclinic,14,P2_1/c,0.30669999999999986,True,False
mp-775,Er5Si4,"Er, Si",2,0.02401393222222481,Monoclinic,14,P2_1/c,0.0,False,True
mp-1201560,P7Pb,"P, Pb",2,0.0,Monoclinic,14,P2_1/c,0.8769999999999998,False,False
mp-23739,SiH4,"H, Si",2,0.0,Monoclinic,14,P2_1/c,6.562100000000001,True,False
mp-2220540,Cr3O8,"Cr, O",2,0.046945458000000606,Monoclinic,14,P2_1/c,0.5890000000000001,True,False
mp-1101193,VF4,"F, V",2,0.053131244500001173,Monoclinic,14,P2_1/c,1.8941999999999999,True,False
mp-562001,Cs11O3,"Cs, O",2,0.003822454759852434,Monoclinic,14,P2_1/c,0.0,False,True
mp-1582,As2O3,"As, O",2,0.0,Monoclinic,14,P2_1/c,4.0339,False,False
mp-1105223,ZrF4,"F, Zr",2,0.0,Monoclinic,14,P2_1/c,5.3453,False,False
mp-23217,Bi2Rh,"Bi, Rh",2,0.0,Monoclinic,14,P2_1/c,0.0,False,True
mp-1205121,CsBi,"Bi, Cs",2,0.0,Monoclinic,14,P2_1/c,0.24520000000000008,False,False
mp-1105302,SrP2,"P, Sr",2,0.0,Monoclinic,14,P2_1/c,0.7968999999999999,False,False
mp-540668,BS2,"B, S",2,0.0,Monoclinic,14,P2_1/c,2.4370000000000003,False,False
mp-29147,MoCl5,"Cl, Mo",2,0.019490981249999706,Monoclinic,14,P2_1/c,0.0,False,True
mp-28391,SiCl4,"Cl, Si",2,0.0,Monoclinic,14,P2_1/c,5.5658,False,False
mp-571540,ZnCl2,"Cl, Zn",2,0.0012411769444433673,Monoclinic,14,P2_1/c,3.9778000000000002,False,False
mp-556654,SiO2,"O, Si",2,0.012054572222222504,Monoclinic,14,P2_1/c,5.6055,False,False
mp-567201,PrCu6,"Cu, Pr",2,0.010206252142856087,Monoclinic,14,P2_1/c,0.0,False,True
mp-1106279,BiI3,"Bi, I",2,0.020190190625000604,Monoclinic,14,P2_1/c,2.297,True,False
mp-1200292,SiO2,"O, Si",2,0.01027549545139017,Monoclinic,14,P2_1/c,5.7088,False,False
mp-27634,TiBr4,"Br, Ti",2,0.00032362899999860417,Monoclinic,14,P2_1/c,2.7825,False,False
mp-1080439,P4Ru,"P, Ru",2,0.016163946333334067,Monoclinic,14,P2_1/c,0.7336999999999998,False,False
mp-29657,NaGe,"Ge, Na",2,0.0,Monoclinic,14,P2_1/c,0.6651999999999998,False,False
mp-16897,Sr2Sb3,"Sb, Sr",2,0.0,Monoclinic,14,P2_1/c,0.13230000000000075,False,False
mp-765624,VF5,"F, V",2,0.033779343749999136,Monoclinic,14,P2_1/c,3.0245,True,False
mp-10155,P2Ir,"Ir, P",2,0.0,Monoclinic,14,P2_1/c,0.6331000000000007,False,False
mp-556425,SbF4,"F, Sb",2,0.0,Monoclinic,14,P2_1/c,3.2371,False,False
mp-760320,VF5,"F, V",2,0.012864522916665955,Monoclinic,14,P2_1/c,2.9955,True,False
mp-1097707,Cu2Se,"Cu, Se",2,0.08263377020833218,Monoclinic,14,P2_1/c,0.051899999999999835,True,False
mp-636148,WO3,"O, W",2,0.030668768437498883,Monoclinic,14,P2_1/c,1.3918000000000001,False,False
mp-1250007,SiSe2,"Se, Si",2,0.0,Monoclinic,14,P2_1/c,2.4771,True,False