material_id,formula,elements,num_elements,energy_above_hull,crystal_system,spacegroup_number,spacegroup_symbol,band_gap,theoretical,is_metal
mp-973676,HgS,"Hg, S",2,0.0015889475000001596,Hexagonal,186,P6_3mc,0.0,True,True
mp-8880,AlP,"Al, P",2,0.004434354999999002,Hexagonal,186,P6_3mc,1.9532999999999996,True,False
mp-1185942,MgS,"Mg, S",2,0.024979367500000293,Hexagonal,186,P6_3mc,3.3877999999999995,True,False
mp-7631,SiC,"C, Si",2,7.649035088874712e-06,Hexagonal,186,P6_3mc,2.0229999999999997,False,False
mp-8884,ZnTe,"Te, Zn",2,0.005251757499999954,Hexagonal,186,P6_3mc,1.1002999999999998,True,False
mp-22205,InN,"In, N",2,0.0,Hexagonal,186,P6_3mc,0.0,False,True
mp-13119,CdO,"Cd, O",2,0.07925563000000047,Hexagonal,186,P6_3mc,0.0,True,True
mp-570557,NbCo3,"Co, Nb",2,0.0660422908333329,Hexagonal,186,P6_3mc,0.0,False,True
mp-1189031,La7Rh3,"La, Rh",2,0.0,Hexagonal,186,P6_3mc,0.0,False,True
mp-864928,BrCl,"Br, Cl",2,0.09600036749999985,Hexagonal,186,P6_3mc,1.3235000000000001,True,False
mp-2542,BeO,"Be, O",2,0.0,Hexagonal,186,P6_3mc,7.463900000000001,False,False
mp-1106115,Nd7Pd3,"Nd, Pd",2,0.0,Hexagonal,186,P6_3mc,0.0,False,True
mp-573601,Th7Ru3,"Ru, Th",2,0.0,Hexagonal,186,P6_3mc,0.0,False,True
mp-976280,LiBr,"Br, Li",2,0.0,Hexagonal,186,P6_3mc,4.9350000000000005,True,False
mp-755489,MnO2,"Mn, O",2,0.04534523722222161,Hexagonal,186,P6_3mc,0.56,True,False
mp-1189469,Pr7Ni3,"Ni, Pr",2,0.0010952619999988755,Hexagonal,186,P6_3mc,0.0,False,True
mp-1106063,Pr7Pt3,"Pr, Pt",2,0.0,Hexagonal,186,P6_3mc,0.0,False,True
mp-30809,Th7Ni3,"Ni, Th",2,0.0,Hexagonal,186,P6_3mc,0.0,False,True
mp-9984,SnS2,"S, Sn",2,0.00030166500000028407,Hexagonal,186,P6_3mc,1.4856999999999996,False,False
mp-1105567,Nd7Pt3,"Nd, Pt",2,0.0,Hexagonal,186,P6_3mc,0.0,False,True
mp-17535,B3Ru7,"B, Ru",2,0.03460237399999855,Hexagonal,186,P6_3mc,0.0,False,True
mp-978534,SiGe,"Ge, Si",2,0.030787385,Hexagonal,186,P6_3mc,0.40890000000000004,True,False
mp-19128,CoO,"Co, O",2,0.0004125800000007729,Hexagonal,186,P6_3mc,0.7120000000000002,False,False
mp-1178514,BaO,"Ba, O",2,0.01753725750000079,Hexagonal,186,P6_3mc,2.1422000000000003,True,False
mp-571094,Th7Ir3,"Ir, Th",2,0.0,Hexagonal,186,P6_3mc,0.0,False,True
mp-863656,PmH,"H, Pm",2,0.0,Hexagonal,186,P6_3mc,0.0,True,True
mp-13286,CaGe2,"Ca, Ge",2,0.0040691266666676995,Hexagonal,186,P6_3mc,0.0,False,True
mp-7926,TaSe2,"Se, Ta",2,0.0009343908333327988,Hexagonal,186,P6_3mc,0.0,False,True
mp-1189474,Y7Rh3,"Rh, Y",2,0.0,Hexagonal,186,P6_3mc,0.0,False,True
mp-1039,MgTe,"Mg, Te",2,2.360250000066344e-05,Hexagonal,186,P6_3mc,2.3611999999999997,False,False
mp-1189638,Sm7Rh3,"Rh, Sm",2,0.0,Hexagonal,186,P6_3mc,0.0,False,True
mp-567503,PbI2,"I, Pb",2,0.0,Hexagonal,186,P6_3mc,2.4455,False,False
mp-30612,Er7Rh3,"Er, Rh",2,0.0,Hexagonal,186,P6_3mc,0.0,False,True
mp-1188316,Bi2O3,"Bi, O",2,0.05082789699999957,Hexagonal,186,P6_3mc,1.4737,False,False
mp-569074,Th7Pt3,"Pt, Th",2,0.0,Hexagonal,186,P6_3mc,0.0,False,True
mp-1105837,La7Ir3,"Ir, La",2,0.0,Hexagonal,186,P6_3mc,0.0,False,True
mp-1106144,Ce7Rh3,"Ce, Rh",2,0.01010166350000219,Hexagonal,186,P6_3mc,0.0,False,True
mp-567290,LaN,"La, N",2,0.016427717500000938,Hexagonal,186,P6_3mc,1.1169000000000002,True,False
mp-1106112,Ce7Ir3,"Ce, Ir",2,0.0,Hexagonal,186,P6_3mc,0.0,False,True
mp-978989,Tc7B3,"B, Tc",2,0.0,Hexagonal,186,P6_3mc,0.0,False,True
mp-561286,ZnS,"S, Zn",2,0.00011004546428594608,Hexagonal,186,P6_3mc,2.0218000000000003,False,False
mp-380,ZnSe,"Se, Zn",2,0.004020032499999715,Hexagonal,186,P6_3mc,1.2004,False,False
mp-1018100,AlSb,"Al, Sb",2,0.008885222500001788,Hexagonal,186,P6_3mc,0.9179000000000004,True,False
mp-1018040,MgSe,"Mg, Se",2,0.0,Hexagonal,186,P6_3mc,2.5765,False,False
mp-1018059,GaSb,"Ga, Sb",2,0.014465242500001807,Hexagonal,186,P6_3mc,0.0,True,True
mp-7868,PtO2,"O, Pt",2,0.05597976166666996,Hexagonal,186,P6_3mc,1.5362,False,False
mp-866056,AcN,"Ac, N",2,0.0,Hexagonal,186,P6_3mc,0.0517000000000003,True,False
mp-12779,CdTe,"Cd, Te",2,0.002613155000002365,Hexagonal,186,P6_3mc,0.6185999999999998,False,False
mp-11714,SiC,"C, Si",2,0.0003009711184223107,Hexagonal,186,P6_3mc,2.2226000000000017,True,False
mp-570054,CdI2,"Cd, I",2,0.0002671456944431938,Hexagonal,186,P6_3mc,2.3541,False,False
mp-22894,AgI,"Ag, I",2,0.0026138749999979893,Hexagonal,186,P6_3mc,1.3877000000000002,False,False
mp-1189498,Nd7Rh3,"Nd, Rh",2,0.0,Hexagonal,186,P6_3mc,0.0,False,True
mp-1188284,Ce7Pd3,"Ce, Pd",2,0.05178187150000113,Hexagonal,186,P6_3mc,0.0,False,True
mp-661,AlN,"Al, N",2,0.0,Hexagonal,186,P6_3mc,4.0467,False,False
mp-1106354,Ce7Ni3,"Ce, Ni",2,0.01944965450000069,Hexagonal,186,P6_3mc,0.0,False,True
mp-27934,CdBr2,"Br, Cd",2,0.0003028083333340703,Hexagonal,186,P6_3mc,2.9381,False,False
mp-10281,ZnS,"S, Zn",2,0.0011312769642852771,Hexagonal,186,P6_3mc,2.0471,False,False
mp-1106137,Eu7Au3,"Au, Eu",2,0.0,Hexagonal,186,P6_3mc,0.0,False,True
mp-804,GaN,"Ga, N",2,0.0,Hexagonal,186,P6_3mc,1.7264999999999997,False,False
mp-570089,CdI2,"Cd, I",2,0.00033981555555495646,Hexagonal,186,P6_3mc,2.3952999999999998,False,False
mp-570935,LiI,"I, Li",2,0.0,Hexagonal,186,P6_3mc,4.3818,False,False
mp-561258,ZnS,"S, Zn",2,0.00034584121428515857,Hexagonal,186,P6_3mc,2.0288,False,False
mp-1006282,Nd7Co3,"Co, Nd",2,0.06478602525000099,Hexagonal,186,P6_3mc,0.0,False,True
mp-567505,SiC,"C, Si",2,6.303174342114914e-05,Hexagonal,186,P6_3mc,1.7772000000000006,False,False
mp-30422,Sr7Au3,"Au, Sr",2,0.0,Hexagonal,186,P6_3mc,0.0,False,True
mp-1105778,Sc7P3,"P, Sc",2,0.009564533083331384,Hexagonal,186,P6_3mc,0.0,False,True
mp-9946,ZnS,"S, Zn",2,0.000675115714285468,Hexagonal,186,P6_3mc,2.0368,False,False
mp-18014,Th7Fe3,"Fe, Th",2,0.0,Hexagonal,186,P6_3mc,0.0,False,True
mp-1920,Ni5P4,"Ni, P",2,0.0,Hexagonal,186,P6_3mc,0.0,False,True
mp-1094558,LiMg5,"Li, Mg",2,0.01281016250000011,Hexagonal,189,P-62m,0.0,True,True
mp-1185952,MgPt5,"Mg, Pt",2,0.07376923416666425,Hexagonal,189,P-62m,0.0,True,True
mp-976128,Hf5Sc,"Hf, Sc",2,0.0,Hexagonal,189,P-62m,0.0,True,True
mp-2340,Na2O2,"Na, O",2,0.0,Hexagonal,189,P-62m,1.7361,False,False
mp-1080831,AsPd2,"As, Pd",2,0.011756747500001552,Hexagonal,189,P-62m,0.0,False,True
mp-1039273,CaMg5,"Ca, Mg",2,0.04566799666666532,Hexagonal,189,P-62m,0.0,True,True
mp-1185817,Mg5In,"In, Mg",2,0.04526100166666569,Hexagonal,189,P-62m,0.0,True,True
mp-1094442,YMg5,"Mg, Y",2,0.05727970166666552,Hexagonal,189,P-62m,0.0,True,True
mp-1185833,MgAg5,"Ag, Mg",2,0.005429561944443773,Hexagonal,189,P-62m,0.0,True,True
mp-1094240,MgSn5,"Mg, Sn",2,0.06381763791666506,Hexagonal,189,P-62m,0.0,True,True
mp-1185819,Mg5Sc,"Mg, Sc",2,0.05215836499999993,Hexagonal,189,P-62m,0.0,True,True
mp-1094651,MgGa5,"Ga, Mg",2,0.028445475624999883,Hexagonal,189,P-62m,0.0,True,True
mp-1200130,Rb5Tl9,"Rb, Tl",2,0.0,Hexagonal,189,P-62m,0.0,False,True
mp-1049,SrAs,"As, Sr",2,0.0,Hexagonal,189,P-62m,0.018100000000000005,False,False
mp-9268,KSe,"K, Se",2,0.0,Hexagonal,189,P-62m,0.7039,False,False
mp-1071163,TiO,"O, Ti",2,0.0,Hexagonal,189,P-62m,0.0,False,True
mp-7931,SrP,"P, Sr",2,0.0,Hexagonal,189,P-62m,0.45940000000000003,False,False
mp-1185803,Mg5Cu,"Cu, Mg",2,0.07245300708333335,Hexagonal,189,P-62m,0.0,True,True
mp-1079254,Co2As,"As, Co",2,0.07119013055555534,Hexagonal,189,P-62m,0.0,False,True
mp-1119338,Na2O,"Na, O",2,0.0734347077777775,Hexagonal,189,P-62m,1.6211999999999998,True,False
mp-865604,Li5Mg,"Li, Mg",2,0.00328050972222238,Hexagonal,189,P-62m,0.0,True,True
mp-998917,K2O2,"K, O",2,0.025785213750000757,Hexagonal,189,P-62m,2.0833999999999997,True,False
mp-1185818,Mg5Pb,"Mg, Pb",2,0.037911707499997505,Hexagonal,189,P-62m,0.0,True,True
mp-1184282,EuMg5,"Eu, Mg",2,0.03618682541666729,Hexagonal,189,P-62m,0.0,True,True
mp-8591,USe2,"Se, U",2,0.08825818266666996,Hexagonal,189,P-62m,0.0,False,True
mp-567680,BaCl2,"Ba, Cl",2,0.009529673333332767,Hexagonal,189,P-62m,4.5724,False,False
mp-1185855,MgBi5,"Bi, Mg",2,0.09802313166666643,Hexagonal,189,P-62m,0.0,True,True
mp-1279,TaN,"N, Ta",2,0.0,Hexagonal,189,P-62m,0.0,False,True
mp-1094576,Li2Mg,"Li, Mg",2,0.01062054944444446,Hexagonal,189,P-62m,0.0,True,True
mp-1185091,La5Mg,"La, Mg",2,0.04952812083333491,Hexagonal,189,P-62m,0.0,True,True
mp-568683,La16Al13,"Al, La",2,0.00441335133620413,Hexagonal,189,P-62m,0.0,False,True
mp-409,NaS,"Na, S",2,0.002286554999999524,Hexagonal,189,P-62m,0.8685,False,False
mp-977059,MgPd5,"Mg, Pd",2,0.0029721600000014448,Hexagonal,189,P-62m,0.0,True,True
mp-18206,Co2As,"As, Co",2,0.059489653888890714,Hexagonal,189,P-62m,0.0,False,True
mp-1287,KS,"K, S",2,0.0,Hexagonal,189,P-62m,1.469,False,False
mp-1184358,Eu5Mg,"Eu, Mg",2,0.06382709687499677,Hexagonal,189,P-62m,0.0,True,True
mp-1094189,Mg5Sn,"Mg, Sn",2,0.06849119916666657,Hexagonal,189,P-62m,0.0,True,True
mp-1094473,Mg5Zn,"Mg, Zn",2,0.06063500576666714,Hexagonal,189,P-62m,0.0,True,True
mp-31326,Mg2In,"In, Mg",2,0.015275971481479633,Hexagonal,189,P-62m,0.0,False,True
mp-308,U3O8,"O, U",2,0.0028851386363673015,Hexagonal,189,P-62m,0.0,False,True
mp-1545896,Li2Sb,"Li, Sb",2,0.0,Hexagonal,189,P-62m,0.0,True,True
mp-697068,SiPd2,"Pd, Si",2,0.0,Hexagonal,189,P-62m,0.0,False,True
mp-1185948,MgPt2,"Mg, Pt",2,0.03932840249999092,Hexagonal,189,P-62m,0.0,True,True
mp-21167,Ni2P,"Ni, P",2,0.0022342603140081962,Hexagonal,189,P-62m,0.0,False,True
mp-1038949,CeMg5,"Ce, Mg",2,0.06925650500000025,Hexagonal,189,P-62m,0.0,True,True
mp-1094448,Mg2Zn,"Mg, Zn",2,0.08588678820000029,Hexagonal,189,P-62m,0.0,True,True
mp-972954,MgCd2,"Cd, Mg",2,0.05262193222222211,Hexagonal,189,P-62m,0.0,True,True
mp-1094656,Mg2Ga,"Ga, Mg",2,0.07119463777777746,Hexagonal,189,P-62m,0.0,True,True
mp-1094702,Ca5Mg,"Ca, Mg",2,0.034122293749999866,Hexagonal,189,P-62m,0.0,True,True
mp-567244,Mg2Tl,"Mg, Tl",2,0.014480268611110514,Hexagonal,189,P-62m,0.0,False,True
mp-1094462,MgZn5,"Mg, Zn",2,0.04847130428571189,Hexagonal,189,P-62m,0.0,True,True
mp-9063,RbSe,"Rb, Se",2,0.0,Hexagonal,189,P-62m,0.9245,False,False
mp-20061,GePt2,"Ge, Pt",2,0.02575043986111325,Hexagonal,189,P-62m,0.0,False,True
mp-778,Fe2P,"Fe, P",2,0.0,Hexagonal,189,P-62m,0.0,False,True
mp-1185852,MgAu5,"Au, Mg",2,0.015310412222224734,Hexagonal,189,P-62m,0.0,True,True
mp-1554,KTe,"K, Te",2,0.003519712083331683,Hexagonal,189,P-62m,0.21319999999999983,False,False
mp-1094983,Mg5Bi,"Bi, Mg",2,0.07949393374999936,Hexagonal,189,P-62m,0.0,True,True
mp-568536,BaI2,"Ba, I",2,0.0032400819444466933,Hexagonal,189,P-62m,3.0488,False,False
mp-1185887,MgHg5,"Hg, Mg",2,0.049670883333328364,Hexagonal,189,P-62m,0.0,True,True
mp-1185814,Mg5Hg,"Hg, Mg",2,0.04079126583333337,Hexagonal,189,P-62m,0.0,True,True
mp-1102993,EuAs,"As, Eu",2,0.0010531908333355489,Hexagonal,189,P-62m,0.0,False,True
mp-1185816,Mg5Pd,"Mg, Pd",2,0.049426235277777675,Hexagonal,189,P-62m,0.0,True,True
mp-1094747,Mg2Cd,"Cd, Mg",2,0.04721120861111161,Hexagonal,189,P-62m,0.0,True,True
mp-1101926,EuAs,"As, Eu",2,0.0,Hexagonal,189,P-62m,0.0,False,True
mp-578,GaAg2,"Ag, Ga",2,0.0,Hexagonal,189,P-62m,0.0,False,True
mp-1025404,Ce3Pd5,"Ce, Pd",2,0.010051346249998261,Hexagonal,189,P-62m,0.0,True,True
mp-1185629,MgIn2,"In, Mg",2,0.0169059996296288,Hexagonal,189,P-62m,0.0,True,True
mp-1094254,Zr5Sn,"Sn, Zr",2,0.06641295916666579,Hexagonal,189,P-62m,0.0,True,True
mp-571598,Ga2Au7,"Au, Ga",2,0.017660370925923985,Hexagonal,189,P-62m,0.0,False,True
mp-1185801,Mg5Ag,"Ag, Mg",2,0.030589565000000984,Hexagonal,189,P-62m,0.0,True,True
mp-9062,RbS,"Rb, S",2,0.0,Hexagonal,189,P-62m,1.5781,False,False
mp-1207128,Th3Pt5,"Pt, Th",2,0.004755704375000391,Hexagonal,189,P-62m,0.0,True,True
mp-11584,Lu8Te,"Lu, Te",2,0.0,Hexagonal,189,P-62m,0.0,False,True
mp-9064,RbTe,"Rb, Te",2,0.0004073541666649305,Hexagonal,189,P-62m,0.4374,False,False
mp-2849,US2,"S, U",2,0.0,Hexagonal,189,P-62m,0.0,False,True
mp-888,CaAs,"As, Ca",2,0.0,Hexagonal,189,P-62m,0.0,False,True
mp-1094223,MgSn2,"Mg, Sn",2,0.07632498583333414,Hexagonal,189,P-62m,0.0,True,True
mp-13446,Co2P,"Co, P",2,0.021158108611109228,Hexagonal,189,P-62m,0.0,False,True
mp-30218,Ti2P,"P, Ti",2,0.0,Hexagonal,189,P-62m,0.0,False,True
mp-1345,CaP,"Ca, P",2,0.0,Hexagonal,189,P-62m,0.3443000000000005,False,False
mp-1038937,Ca2Mg,"Ca, Mg",2,0.07382123916666616,Hexagonal,189,P-62m,0.0,True,True
mp-1094629,MgGa2,"Ga, Mg",2,0.05115958333333204,Hexagonal,189,P-62m,0.0,True,True
mp-1094742,MgCd5,"Cd, Mg",2,0.03990362194444552,Hexagonal,189,P-62m,0.0,True,True
mp-423,GePd2,"Ge, Pd",2,0.0,Hexagonal,189,P-62m,0.0,False,True
mp-1849,Mn2P,"Mn, P",2,0.0,Hexagonal,189,P-62m,0.0,False,True
mp-1185922,MgIn5,"In, Mg",2,0.0589122148148169,Hexagonal,189,P-62m,0.0,True,True
mp-1094292,Sr5Mg,"Mg, Sr",2,0.07089105083333336,Hexagonal,189,P-62m,0.0,True,True
mp-1021484,CeSe2,"Ce, Se",2,0.07794271000000119,Hexagonal,189,P-62m,0.0246000000000004,True,False
mp-1094606,Mg5Ga,"Ga, Mg",2,0.05692180999999974,Hexagonal,189,P-62m,0.0,True,True
mp-1094156,LiMg2,"Li, Mg",2,0.035836228333333775,Hexagonal,189,P-62m,0.0,True,True
mp-1187292,Tb3Ge5,"Ge, Tb",2,0.0016110137500007227,Hexagonal,190,P-62c,0.0,False,True
mp-569320,Sm3Ge5,"Ge, Sm",2,0.0002005943749985306,Hexagonal,190,P-62c,0.0,False,True
mp-30650,Mg2Ga,"Ga, Mg",2,0.0,Hexagonal,190,P-62c,0.0,False,True
mp-9563,Li2Sb,"Li, Sb",2,0.007044385000000375,Hexagonal,190,P-62c,0.0,False,True
mp-1181500,Dy3Ge5,"Dy, Ge",2,0.0021143643750001218,Hexagonal,190,P-62c,0.0,False,True
mp-1201887,SiO2,"O, Si",2,0.012486380694443966,Hexagonal,192,P6/mcc,5.5322,False,False
mp-573514,CsSb,"Cs, Sb",2,0.0,Orthorhombic,19,P2_12_12_1,0.5557999999999996,False,False
mp-28410,ThP7,"P, Th",2,0.039142308055556185,Orthorhombic,19,P2_12_12_1,0.0,False,True
mp-1193140,Cs2S5,"Cs, S",2,0.0,Orthorhombic,19,P2_12_12_1,1.8661999999999999,False,False
mp-1181222,GeH4,"Ge, H",2,0.0,Orthorhombic,19,P2_12_12_1,5.9261,False,False
mp-542814,SiO2,"O, Si",2,0.0074840363888899475,Orthorhombic,19,P2_12_12_1,5.5103,False,False
mp-7456,SnF2,"F, Sn",2,0.005286595416666984,Orthorhombic,19,P2_12_12_1,3.2628999999999997,False,False
mp-7444,RbSb,"Rb, Sb",2,0.0010182756250003422,Orthorhombic,19,P2_12_12_1,0.5423,False,False
mp-734819,SbF6,"F, Sb",2,0.06470690297619086,Orthorhombic,19,P2_12_12_1,0.0,True,True
mp-21858,UO3,"O, U",2,0.08297791937500065,Orthorhombic,19,P2_12_12_1,1.9038,False,False
mp-561224,TeO2,"O, Te",2,0.0008392999999973227,Orthorhombic,19,P2_12_12_1,2.8518999999999997,False,False
mp-27820,B7H10,"B, H",2,0.031991528021389826,Orthorhombic,19,P2_12_12_1,2.5117,False,False
mp-23317,AsBr3,"As, Br",2,0.0,Orthorhombic,19,P2_12_12_1,3.1271000000000004,False,False
mp-1179728,RbF3,"F, Rb",2,0.002559858749999755,Orthorhombic,19,P2_12_12_1,2.173,True,False
mp-558226,H2O,"H, O",2,0.011058480555554695,Orthorhombic,19,P2_12_12_1,5.4567,True,False
mp-685014,In2Br3,"Br, In",2,0.0,Orthorhombic,19,P2_12_12_1,2.1261,True,False
mp-1095694,Ag2S,"Ag, S",2,0.02520492250000217,Orthorhombic,19,P2_12_12_1,0.0,False,True
mp-23280,AsCl3,"As, Cl",2,0.0,Orthorhombic,19,P2_12_12_1,3.9873,False,False
mp-32684,HBr,"Br, H",2,0.022641842499998788,Orthorhombic,19,P2_12_12_1,4.486000000000001,True,False
mp-8377,TeO2,"O, Te",2,0.0,Orthorhombic,19,P2_12_12_1,3.0604,False,False
mp-7595,GeF2,"F, Ge",2,0.00635599541666565,Orthorhombic,19,P2_12_12_1,4.0597,False,False
mp-754954,Ag2Se,"Ag, Se",2,0.0050267700000010684,Orthorhombic,19,P2_12_12_1,0.13839999999999986,True,False
mp-16911,Rb2S5,"Rb, S",2,0.0,Orthorhombic,19,P2_12_12_1,1.9539000000000002,False,False
mp-29172,SeF4,"F, Se",2,0.0,Orthorhombic,19,P2_12_12_1,4.1424,False,False
mp-643432,H3N,"H, N",2,0.0037674268750000905,Orthorhombic,19,P2_12_12_1,4.4529,False,False
mp-7441,KP,"K, P",2,0.0,Orthorhombic,19,P2_12_12_1,1.0349999999999997,False,False
mp-1788,As2O5,"As, O",2,0.0,Orthorhombic,19,P2_12_12_1,1.426,False,False
mp-568936,Ag2Se,"Ag, Se",2,0.0,Orthorhombic,19,P2_12_12_1,0.0,False,True
mp-620372,Rb2Se5,"Rb, Se",2,0.0,Orthorhombic,19,P2_12_12_1,0.8362,False,False
mp-30520,Tl2S5,"S, Tl",2,0.0,Orthorhombic,19,P2_12_12_1,1.6678999999999995,False,False
mp-765621,VF5,"F, V",2,0.0071541133333346,Orthorhombic,19,P2_12_12_1,2.8333999999999997,True,False
mp-541055,Cs2Se5,"Cs, Se",2,0.0,Orthorhombic,19,P2_12_12_1,0.9618,False,False
mp-17146,K2S5,"K, S",2,0.0,Orthorhombic,19,P2_12_12_1,1.9298999999999997,False,False
mp-776896,Nb2O5,"Nb, O",2,0.05922132576530714,Orthorhombic,19,P2_12_12_1,2.4469,True,False
mp-713,KAs,"As, K",2,0.0,Orthorhombic,19,P2_12_12_1,0.6695,False,False
mp-776160,Cr2O5,"Cr, O",2,0.057521436714285556,Orthorhombic,19,P2_12_12_1,0.516,True,False
mp-1203812,SF4,"F, S",2,0.02667429809027766,Orthorhombic,19,P2_12_12_1,4.9033999999999995,False,False
mp-1396391,WO3,"O, W",2,0.009208933437498956,Orthorhombic,19,P2_12_12_1,1.4637,True,False
mp-1202960,Sb2O3,"O, Sb",2,0.03248689499999813,Orthorhombic,19,P2_12_12_1,2.3542999999999994,False,False
mp-1188662,NaAs,"As, Na",2,0.0040716237499989205,Orthorhombic,19,P2_12_12_1,0.5472000000000001,False,False
mp-561664,TeF4,"F, Te",2,0.0,Orthorhombic,19,P2_12_12_1,4.0186,False,False
mp-28128,SCl2,"Cl, S",2,0.053359090729166336,Orthorhombic,19,P2_12_12_1,2.093,False,False
mp-28336,Li3P7,"Li, P",2,0.0,Orthorhombic,19,P2_12_12_1,1.7927,False,False
mp-1183005,Ag2Se,"Ag, Se",2,0.052263529166667766,Orthorhombic,19,P2_12_12_1,1.7115,True,False
mp-556961,SiO2,"O, Si",2,0.008716009305556938,Orthorhombic,19,P2_12_12_1,5.736,False,False
mp-7440,NaP,"Na, P",2,0.0,Orthorhombic,19,P2_12_12_1,0.8684000000000003,False,False
mp-10802,RbAs,"As, Rb",2,0.0,Orthorhombic,19,P2_12_12_1,0.5879000000000001,False,False
mp-18609,K2Se5,"K, Se",2,0.0,Orthorhombic,19,P2_12_12_1,0.9322999999999999,False,False
mp-29174,SiCl2,"Cl, Si",2,0.06096741874999978,Orthorhombic,19,P2_12_12_1,2.0151,False,False
mp-1016092,Re2O7,"O, Re",2,0.0,Orthorhombic,19,P2_12_12_1,2.3646000000000003,False,False
mp-23256,BCl,"B, Cl",2,0.09947819928819435,Orthorhombic,19,P2_12_12_1,0.9004000000000001,False,False
mp-672372,K2S5,"K, S",2,0.06060130321428581,Orthorhombic,19,P2_12_12_1,1.1703,True,False
mp-981214,SrMg5,"Mg, Sr",2,0.024427177500000008,Hexagonal,191,P6/mmm,0.0,True,True
mp-571353,BaSn5,"Ba, Sn",2,0.026217794166670583,Hexagonal,191,P6/mmm,0.0,False,True
mp-11472,SrHg2,"Hg, Sr",2,0.0031802333333292854,Hexagonal,191,P6/mmm,0.0,False,True
mp-2267,HoB2,"B, Ho",2,0.0,Hexagonal,191,P6/mmm,0.0,False,True
mp-11287,CaHg2,"Ca, Hg",2,0.0,Hexagonal,191,P6/mmm,0.0,False,True
mp-1331,YCd2,"Cd, Y",2,0.0,Hexagonal,191,P6/mmm,0.0,True,True
mp-1181137,GdFe5,"Fe, Gd",2,0.0,Hexagonal,191,P6/mmm,0.0,False,True
mp-12892,CaSi2,"Ca, Si",2,0.08172182166666708,Hexagonal,191,P6/mmm,0.0,True,True
mp-570832,SrPt5,"Pt, Sr",2,0.0,Hexagonal,191,P6/mmm,0.0,False,True
mp-1774,ErB2,"B, Er",2,0.0,Hexagonal,191,P6/mmm,0.0,False,True
mp-11280,TiBe12,"Be, Ti",2,0.08558260846153765,Hexagonal,191,P6/mmm,0.0,False,True
mp-11385,YFe5,"Fe, Y",2,0.0,Hexagonal,191,P6/mmm,0.0,False,True
mp-2252,ScB2,"B, Sc",2,0.0,Hexagonal,191,P6/mmm,0.0,False,True
mp-30620,DyRh5,"Dy, Rh",2,0.07600665499999959,Hexagonal,191,P6/mmm,0.0,False,True
mp-1008568,ZrTi2,"Ti, Zr",2,0.03777308388888656,Hexagonal,191,P6/mmm,0.0,True,True
mp-1210,ThCd2,"Cd, Th",2,0.0,Hexagonal,191,P6/mmm,0.0,False,True
mp-30363,BaAu2,"Au, Ba",2,0.0,Hexagonal,191,P6/mmm,0.0,False,True
mp-1256,HoGa2,"Ga, Ho",2,0.0,Hexagonal,191,P6/mmm,0.0,False,True
mp-1553,HoNi5,"Ho, Ni",2,0.0,Hexagonal,191,P6/mmm,0.0,False,True
mp-20125,GdSi2,"Gd, Si",2,0.023797233333333168,Hexagonal,191,P6/mmm,0.0,False,True
mp-1184881,HoMg2,"Ho, Mg",2,0.009846728333331445,Hexagonal,191,P6/mmm,0.0,True,True
mp-20064,DyGa2,"Dy, Ga",2,0.0,Hexagonal,191,P6/mmm,0.0,False,True
mp-20536,CoSn,"Co, Sn",2,0.0,Hexagonal,191,P6/mmm,0.0,False,True
mp-1204057,SiO2,"O, Si",2,0.016936006203703613,Hexagonal,191,P6/mmm,5.5443999999999996,False,False
mp-20719,EuHg2,"Eu, Hg",2,0.0,Hexagonal,191,P6/mmm,0.0,False,True
mp-11219,LuB2,"B, Lu",2,0.0,Hexagonal,191,P6/mmm,0.0,False,True
mp-680434,Na26Cd141,"Cd, Na",2,0.0,Hexagonal,191,P6/mmm,0.0,False,True
mp-567406,SmZn5,"Sm, Zn",2,0.01585193989582967,Hexagonal,191,P6/mmm,0.0,False,True
mp-1882,CaCu5,"Ca, Cu",2,0.0,Hexagonal,191,P6/mmm,0.0,False,True
mp-312,ThIr5,"Ir, Th",2,0.0,Hexagonal,191,P6/mmm,0.0,False,True