material_id,formula,elements,num_elements,energy_above_hull,crystal_system,spacegroup_number,spacegroup_symbol,band_gap,theoretical,is_metal
mp-6933,MnN,"Mn, N",2,0.08971384999999898,Cubic,225,Fm-3m,0.0,False,True
mp-1103809,NpB12,"B, Np",2,0.0,Cubic,225,Fm-3m,0.0,False,True
mp-1192884,Fe23C6,"C, Fe",2,0.052778689827587044,Cubic,225,Fm-3m,0.0,True,True
mp-642322,Sr11In7,"In, Sr",2,0.008803466245913771,Cubic,225,Fm-3m,0.0,False,True
mp-1102,LuN,"Lu, N",2,0.0,Cubic,225,Fm-3m,0.23309999999999986,False,False
mp-24289,HPd,"H, Pd",2,0.03307166749999979,Cubic,225,Fm-3m,0.0,False,True
mp-1187403,ThAu3,"Au, Th",2,0.03108073630434305,Cubic,225,Fm-3m,0.0,True,True
mp-10688,CeO,"Ce, O",2,0.0,Cubic,225,Fm-3m,0.0,False,True
mp-21394,EuO,"Eu, O",2,0.0,Cubic,225,Fm-3m,0.0,False,True
mp-22903,RbI,"I, Rb",2,0.0,Cubic,225,Fm-3m,3.7765,False,False
mp-2520,TmSb,"Sb, Tm",2,0.0,Cubic,225,Fm-3m,0.0,False,True
mp-24151,DyH2,"Dy, H",2,0.0,Cubic,225,Fm-3m,0.0,False,True
mp-571222,CsBr,"Br, Cs",2,0.005111849999998697,Cubic,225,Fm-3m,4.2575,False,False
mp-1193555,Sm6Fe23,"Fe, Sm",2,0.024175548275862546,Cubic,225,Fm-3m,0.0,False,True
mp-542830,Mn23C6,"C, Mn",2,0.0,Cubic,225,Fm-3m,0.0,False,True
mp-23209,SrCl2,"Cl, Sr",2,0.0,Cubic,225,Fm-3m,5.2286,False,False
mp-2532,PrTe,"Pr, Te",2,0.0,Cubic,225,Fm-3m,0.0,False,True
mp-1087,SrS,"S, Sr",2,0.0,Cubic,225,Fm-3m,2.497,False,False
mp-1865,UN,"N, U",2,0.0,Cubic,225,Fm-3m,0.0,False,True
mp-1187152,SrCd3,"Cd, Sr",2,0.04993003838541621,Cubic,225,Fm-3m,0.0,True,True
mp-838,Cu3Sn,"Cu, Sn",2,0.0735731599999987,Cubic,225,Fm-3m,0.0,False,True
mp-2162,Er6Fe23,"Er, Fe",2,0.009877545517243291,Cubic,225,Fm-3m,0.0,False,True
mp-1192847,Ho6Zn23,"Ho, Zn",2,0.02437781607531564,Cubic,225,Fm-3m,0.0,False,True
mp-1184921,In3Pb,"In, Pb",2,0.06557534250000074,Cubic,225,Fm-3m,0.0,True,True
mp-1004525,SmB12,"B, Sm",2,0.038252772692306536,Cubic,225,Fm-3m,0.0,True,True
mp-1192910,Lu6Zn23,"Lu, Zn",2,0.019477001229582402,Cubic,225,Fm-3m,0.0,False,True
mp-1623,ErS,"Er, S",2,0.0,Cubic,225,Fm-3m,0.0,False,True
mp-976023,Li3Ga,"Ga, Li",2,0.021047610833333508,Cubic,225,Fm-3m,0.0,True,True
mp-23870,NaH,"H, Na",2,0.0,Cubic,225,Fm-3m,3.7666,False,False
mp-1586,NdSb,"Nd, Sb",2,0.0,Cubic,225,Fm-3m,0.0,False,True
mp-23234,TmBi,"Bi, Tm",2,0.0,Cubic,225,Fm-3m,0.0,False,True
mp-1193644,Lu6Fe23,"Fe, Lu",2,0.003959607241377228,Cubic,225,Fm-3m,0.0,False,True
mp-977360,AcF3,"Ac, F",2,0.004654172500000442,Cubic,225,Fm-3m,7.4101,True,False
mp-2807,ScP,"P, Sc",2,0.0,Cubic,225,Fm-3m,0.0,False,True
mp-1193291,Tb6Zn23,"Tb, Zn",2,0.02551985477313945,Cubic,225,Fm-3m,0.0,False,True
mp-999389,NbFe3,"Fe, Nb",2,0.05140361999999854,Cubic,225,Fm-3m,0.0,True,True
mp-24154,NbH2,"H, Nb",2,0.0,Cubic,225,Fm-3m,0.0,False,True
mp-1183324,BaSr3,"Ba, Sr",2,0.015435395000000351,Cubic,225,Fm-3m,0.0,True,True
mp-930,ZrP,"P, Zr",2,0.04236680624999778,Cubic,225,Fm-3m,0.0,False,True
mp-22907,DyBi,"Bi, Dy",2,0.0,Cubic,225,Fm-3m,0.0,False,True
mp-256,LaN,"La, N",2,0.0,Cubic,225,Fm-3m,0.0,False,True
mp-1192795,Hf6Co23,"Co, Hf",2,0.0,Cubic,225,Fm-3m,0.0,False,True
mp-30641,Y6Fe23,"Fe, Y",2,0.009851046551723641,Cubic,225,Fm-3m,0.0,False,True
mp-567580,PaC,"C, Pa",2,0.0,Cubic,225,Fm-3m,0.0,False,True
mp-2423,US,"S, U",2,0.0,Cubic,225,Fm-3m,0.0,False,True
mp-2175,TlF,"F, Tl",2,0.057131171250002666,Cubic,225,Fm-3m,2.2116999999999996,True,False
mp-866172,HoMg3,"Ho, Mg",2,0.0,Cubic,225,Fm-3m,0.0,True,True
mp-1132,CdO,"Cd, O",2,0.0,Cubic,225,Fm-3m,0.0,False,True
mp-20587,EuS,"Eu, S",2,0.0,Cubic,225,Fm-3m,0.0,False,True
mp-22867,RbBr,"Br, Rb",2,0.0,Cubic,225,Fm-3m,4.192,False,False
mp-1453,NdSe,"Nd, Se",2,0.0,Cubic,225,Fm-3m,0.0,False,True
mp-1030,SbPt7,"Pt, Sb",2,0.009764302812499182,Cubic,225,Fm-3m,0.0,False,True
mp-22899,LiI,"I, Li",2,0.02873937250000047,Cubic,225,Fm-3m,4.2306,False,False
mp-971,K2O,"K, O",2,0.0,Cubic,225,Fm-3m,1.7072,False,False
mp-516,LuSb,"Lu, Sb",2,0.0,Cubic,225,Fm-3m,0.0,False,True
mp-1187385,Tc3Ge,"Ge, Tc",2,0.02171540500000191,Cubic,225,Fm-3m,0.0,True,True
mp-1193316,Tb6Fe23,"Fe, Tb",2,0.013021383103450468,Cubic,225,Fm-3m,0.0,False,True
mp-2758,SrSe,"Se, Sr",2,0.0,Cubic,225,Fm-3m,2.2313,False,False
mp-1147673,Cu3O4,"Cu, O",2,0.06632817303571414,Cubic,225,Fm-3m,0.0,True,True
mp-1232235,PmS,"Pm, S",2,0.0,Cubic,225,Fm-3m,0.0,True,True
mp-24728,VH2,"H, V",2,0.0,Cubic,225,Fm-3m,0.0,False,True
mp-1597,UO2,"O, U",2,0.0,Cubic,225,Fm-3m,0.0,False,True
mp-1525,CeTe,"Ce, Te",2,0.0,Cubic,225,Fm-3m,0.0,False,True
mp-1184365,EuAu3,"Au, Eu",2,0.059975251666669394,Cubic,225,Fm-3m,0.0,True,True
mp-21276,PbS,"Pb, S",2,0.0,Cubic,225,Fm-3m,0.46669999999999945,False,False
mp-926,PuP,"P, Pu",2,0.0,Cubic,225,Fm-3m,0.0,False,True
mp-33018,Rb3Sb,"Rb, Sb",2,0.013495073750000586,Cubic,225,Fm-3m,0.4312999999999998,True,False
mp-1560,LaTe,"La, Te",2,0.0,Cubic,225,Fm-3m,0.0,False,True
mp-23193,KCl,"Cl, K",2,0.0,Cubic,225,Fm-3m,5.027,False,False
mp-30779,SmMg3,"Mg, Sm",2,0.0,Cubic,225,Fm-3m,0.0,False,True
mp-1232234,PmSe,"Pm, Se",2,0.0,Cubic,225,Fm-3m,0.0,True,True
mp-984785,AcMg3,"Ac, Mg",2,0.0,Cubic,225,Fm-3m,0.0,True,True
mp-8041,Rb2S,"Rb, S",2,0.0,Cubic,225,Fm-3m,1.9632,False,False
mp-998979,Ti3In,"In, Ti",2,0.09522677999999907,Cubic,225,Fm-3m,0.0,True,True
mp-559962,SiO2,"O, Si",2,0.04177927666666825,Cubic,225,Fm-3m,5.6777,True,False
mp-644500,Zn7Mo,"Mo, Zn",2,0.025753753124998724,Cubic,225,Fm-3m,0.0,False,True
mp-30482,Ca3Tl,"Ca, Tl",2,0.0680144949999999,Cubic,225,Fm-3m,0.0,False,True
mp-1184300,EuMg3,"Eu, Mg",2,0.022486643125001038,Cubic,225,Fm-3m,0.0,True,True
mp-1183471,CaAg3,"Ag, Ca",2,0.07972769499999899,Cubic,225,Fm-3m,0.0,True,True
mp-1187130,Sr3Eu,"Eu, Sr",2,0.07228954624999773,Cubic,225,Fm-3m,0.0,True,True
mp-20711,Fe3Ge,"Fe, Ge",2,0.05176732500000014,Cubic,225,Fm-3m,0.0,False,True
mp-23241,YBi,"Bi, Y",2,0.0,Cubic,225,Fm-3m,0.0,False,True
mp-11344,PrO,"O, Pr",2,0.05683253993055715,Cubic,225,Fm-3m,0.0,False,True
mp-982246,PbAu3,"Au, Pb",2,0.081645635000001,Cubic,225,Fm-3m,0.0,True,True
mp-1315,MgS,"Mg, S",2,0.0,Cubic,225,Fm-3m,2.7574,False,False
mp-504731,EuF2,"Eu, F",2,0.0,Cubic,225,Fm-3m,0.0,False,True
mp-30760,Li3Pb,"Li, Pb",2,0.0019604210000014888,Cubic,225,Fm-3m,0.0,False,True
mp-2857,ScN,"N, Sc",2,0.0,Cubic,225,Fm-3m,0.0,False,True
mp-749,SmN,"N, Sm",2,0.0,Cubic,225,Fm-3m,0.0,False,True
mp-2364,PaO2,"O, Pa",2,0.0,Cubic,225,Fm-3m,0.0,False,True
mp-974058,LiCu3,"Cu, Li",2,0.02556148999999941,Cubic,225,Fm-3m,0.0,True,True
mp-1187610,TmMg3,"Mg, Tm",2,0.002244144821430538,Cubic,225,Fm-3m,0.0,True,True
mp-971744,ZnCo3,"Co, Zn",2,0.07570645852272762,Cubic,225,Fm-3m,0.0,True,True
mp-1206710,LaO,"La, O",2,0.017204367499999762,Cubic,225,Fm-3m,0.0,True,True
mp-2616,NpO2,"Np, O",2,0.0,Cubic,225,Fm-3m,0.0,False,True
mp-1183671,CaEu3,"Ca, Eu",2,0.03665310874999861,Cubic,225,Fm-3m,0.0,True,True
mp-975073,NdAu3,"Au, Nd",2,0.042551942995864955,Cubic,225,Fm-3m,0.0,True,True
mp-1184312,Eu3Mg,"Eu, Mg",2,0.06379705531249691,Cubic,225,Fm-3m,0.0,True,True
mp-24650,YH2,"H, Y",2,0.0,Cubic,225,Fm-3m,0.0,False,True
mp-1104585,HoB12,"B, Ho",2,0.0,Cubic,225,Fm-3m,0.0,False,True
mp-30569,Zr6Co23,"Co, Zr",2,0.0,Cubic,225,Fm-3m,0.0,False,True
mp-2083,Sn2Ir,"Ir, Sn",2,0.0,Cubic,225,Fm-3m,0.0,False,True
mp-710,SmP,"P, Sm",2,0.0,Cubic,225,Fm-3m,0.0,False,True
mp-2759,Ho6Fe23,"Fe, Ho",2,0.01044472758620607,Cubic,225,Fm-3m,0.0,False,True
mp-1057286,CsH,"Cs, H",2,0.0,Cubic,225,Fm-3m,2.3475,False,False
mp-2288,PuSe,"Pu, Se",2,0.0,Cubic,225,Fm-3m,0.0,False,True
mp-22921,TbBi,"Bi, Tb",2,0.0,Cubic,225,Fm-3m,0.0,False,True
mp-464,HoSe,"Ho, Se",2,0.0,Cubic,225,Fm-3m,0.0,False,True
mp-8772,ScB12,"B, Sc",2,0.0,Cubic,225,Fm-3m,0.0,False,True
mp-1018144,LaH3,"H, La",2,0.0,Cubic,225,Fm-3m,0.0,False,True
mp-12570,ThB12,"B, Th",2,0.02804835038461384,Cubic,225,Fm-3m,0.0,False,True
mp-1120739,CaCl2,"Ca, Cl",2,0.04218543083333337,Cubic,225,Fm-3m,4.8803,True,False
mp-19009,NiO,"Ni, O",2,0.0,Cubic,225,Fm-3m,2.3008999999999995,False,False
mp-862681,ErMg3,"Er, Mg",2,0.0,Cubic,225,Fm-3m,0.0,True,True
mp-1688,ErAs,"As, Er",2,0.0,Cubic,225,Fm-3m,0.0,False,True
mp-1186802,PuAg3,"Ag, Pu",2,0.08222843000000069,Cubic,225,Fm-3m,0.0,True,True
mp-865858,PaAu3,"Au, Pa",2,0.0,Cubic,225,Fm-3m,0.0,True,True
mp-1674,PrSe,"Pr, Se",2,0.0,Cubic,225,Fm-3m,0.0,False,True
mp-10109,NpS,"Np, S",2,0.0,Cubic,225,Fm-3m,0.0,False,True
mp-510403,GdSb,"Gd, Sb",2,0.0,Cubic,225,Fm-3m,0.0,False,True
mp-1187558,TmF3,"F, Tm",2,0.01820531749999965,Cubic,225,Fm-3m,6.1669,True,False
mp-23259,LiBr,"Br, Li",2,0.009895712500000542,Cubic,225,Fm-3m,4.9234,False,False
mp-2199,Fe3Si,"Fe, Si",2,0.0,Cubic,225,Fm-3m,0.0,False,True
mp-24208,CrH2,"Cr, H",2,0.0022804741666666573,Cubic,225,Fm-3m,0.0,False,True
mp-1006223,GdB12,"B, Gd",2,0.01760216653846136,Cubic,225,Fm-3m,0.0,False,True
mp-1561,TbSe,"Se, Tb",2,0.0,Cubic,225,Fm-3m,0.0,False,True
mp-931,ThP,"P, Th",2,0.0,Cubic,225,Fm-3m,0.0,False,True
mp-867226,Li3In,"In, Li",2,0.005150574464284574,Cubic,225,Fm-3m,0.0,True,True
mp-23300,NdBi,"Bi, Nd",2,0.0,Cubic,225,Fm-3m,0.0,False,True
mp-2784,Na2Te,"Na, Te",2,0.0,Cubic,225,Fm-3m,2.0282,False,False
mp-862899,PmCd3,"Cd, Pm",2,0.0,Cubic,225,Fm-3m,0.0,True,True
mp-24084,KH,"H, K",2,0.0,Cubic,225,Fm-3m,3.4330999999999996,False,False
mp-2186,NpAs,"As, Np",2,0.0,Cubic,225,Fm-3m,0.0,False,True
mp-20969,NpSb,"Np, Sb",2,0.0,Cubic,225,Fm-3m,0.0,False,True
mp-862910,PmH3,"H, Pm",2,0.0,Cubic,225,Fm-3m,0.0,True,True
mp-10051,TeAs,"As, Te",2,0.09081345583333444,Cubic,225,Fm-3m,0.0,False,True
mp-1206378,Zn7Tc,"Tc, Zn",2,0.0,Cubic,225,Fm-3m,0.0,True,True
mp-463,KF,"F, K",2,0.0,Cubic,225,Fm-3m,5.949400000000001,False,False
mp-1183509,Ca3Pm,"Ca, Pm",2,0.09718228562499931,Cubic,225,Fm-3m,0.0,True,True
mp-1569,Be2C,"Be, C",2,0.0,Cubic,225,Fm-3m,1.1636999999999995,False,False
mp-1104289,LuB12,"B, Lu",2,0.0,Cubic,225,Fm-3m,0.0,False,True
mp-2201,PbSe,"Pb, Se",2,0.0,Cubic,225,Fm-3m,0.42569999999999997,False,False
mp-23251,KBr,"Br, K",2,0.0,Cubic,225,Fm-3m,4.3224,False,False
mp-2863,CeCd3,"Cd, Ce",2,0.0,Cubic,225,Fm-3m,0.0,False,True
mp-1747,K2Te,"K, Te",2,0.0,Cubic,225,Fm-3m,2.141,False,False
mp-1194041,Dy6Cu23,"Cu, Dy",2,0.022678477241379724,Cubic,225,Fm-3m,0.0,False,True
mp-1094244,Mg3Sn,"Mg, Sn",2,0.09078888624999948,Cubic,225,Fm-3m,0.0,True,True
mp-1193017,Gd6Zn23,"Gd, Zn",2,0.007427585384611746,Cubic,225,Fm-3m,0.0,False,True
mp-11247,Li3Au,"Au, Li",2,0.0,Cubic,225,Fm-3m,0.0,False,True
mp-1187196,Ta3Ir,"Ir, Ta",2,0.0,Cubic,225,Fm-3m,0.0,True,True
mp-24720,PuH2,"H, Pu",2,0.0,Cubic,225,Fm-3m,0.0,False,True
mp-1184236,GaSn3,"Ga, Sn",2,0.07891876937499731,Cubic,225,Fm-3m,0.0,True,True
mp-10759,GeSe,"Ge, Se",2,0.06116251499999947,Cubic,225,Fm-3m,0.015300000000000757,False,False
mp-1096,CeS,"Ce, S",2,0.0,Cubic,225,Fm-3m,0.0,False,True
mp-1161,LaSe,"La, Se",2,0.0,Cubic,225,Fm-3m,0.0,False,True
mp-20340,EuN,"Eu, N",2,0.0,Cubic,225,Fm-3m,0.0,False,True
mp-19184,VO,"O, V",2,0.02183531770833369,Cubic,225,Fm-3m,0.9700999999999995,False,False
mp-22866,HoBi,"Bi, Ho",2,0.0,Cubic,225,Fm-3m,0.0,False,True
mp-1009077,FeH,"Fe, H",2,0.0,Cubic,225,Fm-3m,0.0,True,True
mp-1018063,ErH3,"Er, H",2,0.07727357999999995,Cubic,225,Fm-3m,0.0,True,True
mp-972071,V3Mo,"Mo, V",2,0.0,Cubic,225,Fm-3m,0.0,True,True
mp-582924,Zr6Fe23,"Fe, Zr",2,0.007645919655173472,Cubic,225,Fm-3m,0.0,False,True
mp-1719,PuN,"N, Pu",2,0.0,Cubic,225,Fm-3m,0.0,False,True
mp-1751,ThSb,"Sb, Th",2,0.0,Cubic,225,Fm-3m,0.0,False,True
mp-1447,SmSe,"Se, Sm",2,0.0,Cubic,225,Fm-3m,0.0,False,True
mp-16522,Al2Pd,"Al, Pd",2,0.03568099574073891,Cubic,225,Fm-3m,0.0,False,True
mp-1184364,Fe3Rh,"Fe, Rh",2,0.0,Cubic,225,Fm-3m,0.0,True,True
mp-994,YP,"P, Y",2,0.0,Cubic,225,Fm-3m,0.0,False,True
mp-2828,HfN,"Hf, N",2,0.0,Cubic,225,Fm-3m,0.0,False,True
mp-1282,VC,"C, V",2,0.08810940243055576,Cubic,225,Fm-3m,0.0,False,True
mp-20724,Mg2Pb,"Mg, Pb",2,0.0,Cubic,225,Fm-3m,0.0,False,True
mp-1038778,Sn3Bi,"Bi, Sn",2,0.07780466375000072,Cubic,225,Fm-3m,0.0,True,True
mp-1094633,Mg3Ga,"Ga, Mg",2,0.08637813999999944,Cubic,225,Fm-3m,0.0,True,True
mp-22682,In2Pt,"In, Pt",2,0.0,Cubic,225,Fm-3m,0.0,False,True
mp-1192635,Dy6Mn23,"Dy, Mn",2,0.025072085000001465,Cubic,225,Fm-3m,0.0,False,True
mp-1063314,Ca2Rh,"Ca, Rh",2,0.062295558333332224,Cubic,225,Fm-3m,0.0,False,True
mp-22862,NaCl,"Cl, Na",2,0.0,Cubic,225,Fm-3m,5.0037,False,False
mp-1011695,Cs2Se,"Cs, Se",2,0.0,Cubic,225,Fm-3m,1.7952000000000001,True,False
mp-1187197,Ta3Os,"Os, Ta",2,0.0,Cubic,225,Fm-3m,0.0,True,True
mp-2302,AsRh2,"As, Rh",2,0.0,Cubic,225,Fm-3m,0.0,False,True
mp-24155,ZrH2,"H, Zr",2,0.006795596666666626,Cubic,225,Fm-3m,0.0,False,True
mp-1101,TmAs,"As, Tm",2,0.0,Cubic,225,Fm-3m,0.0,False,True
mp-19717,TePb,"Pb, Te",2,0.0,Cubic,225,Fm-3m,0.8063000000000002,False,False
mp-866121,V3Os,"Os, V",2,0.0,Cubic,225,Fm-3m,0.0,True,True
mp-723,Cr23C6,"C, Cr",2,0.0,Cubic,225,Fm-3m,0.0,False,True
mp-1958,SrTe,"Sr, Te",2,0.0,Cubic,225,Fm-3m,1.7616,False,False
mp-30474,Ca11Ga7,"Ca, Ga",2,0.0032964504575154763,Cubic,225,Fm-3m,0.0,False,True
mp-2493,CeN,"Ce, N",2,0.0,Cubic,225,Fm-3m,0.0,False,True
mp-1185554,CsK3,"Cs, K",2,0.016542448750000105,Cubic,225,Fm-3m,0.0,True,True
mp-2495,PrS,"Pr, S",2,0.0,Cubic,225,Fm-3m,0.0,False,True
mp-867158,SmCd3,"Cd, Sm",2,0.00198218874999867,Cubic,225,Fm-3m,0.0,True,True
mp-865176,HfCu3,"Cu, Hf",2,0.0739975925762213,Cubic,225,Fm-3m,0.0,True,True
mp-976412,Li3Zn,"Li, Zn",2,0.027654085416666696,Cubic,225,Fm-3m,0.0,True,True
mp-1187107,Sr3Ca,"Ca, Sr",2,0.05711801499999858,Cubic,225,Fm-3m,0.0,True,True
mp-1018160,PmN,"N, Pm",2,0.0,Cubic,225,Fm-3m,0.0,True,True
mp-1185559,CsRb3,"Cs, Rb",2,0.007330274461205821,Cubic,225,Fm-3m,0.0,True,True
mp-1534,YS,"S, Y",2,0.0,Cubic,225,Fm-3m,0.0,False,True
mp-2272,Sr6Li23,"Li, Sr",2,0.006392339243798784,Cubic,225,Fm-3m,0.0,False,True
mp-23222,Li3Bi,"Bi, Li",2,0.0,Cubic,225,Fm-3m,0.34289999999999976,False,False
mp-2724,TbSb,"Sb, Tb",2,0.0,Cubic,225,Fm-3m,0.0,False,True
mp-1194186,Dy6Fe23,"Dy, Fe",2,0.011243850344827777,Cubic,225,Fm-3m,0.0,False,True
mp-865027,Mn3Ge,"Ge, Mn",2,0.0,Cubic,225,Fm-3m,0.0,True,True
mp-1094666,Mg3Al,"Al, Mg",2,0.07658508552083365,Cubic,225,Fm-3m,0.0,True,True
mp-1183639,CdHg3,"Cd, Hg",2,0.03666429437500085,Cubic,225,Fm-3m,0.0,True,True
mp-9935,GeSb,"Ge, Sb",2,0.04942549249999928,Cubic,225,Fm-3m,0.0,True,True
mp-1193217,Lu6Cu23,"Cu, Lu",2,0.009810238448277886,Cubic,225,Fm-3m,0.0,False,True
mp-24719,NiH,"H, Ni",2,0.0,Cubic,225,Fm-3m,0.0,False,True
mp-343,PrN,"N, Pr",2,0.0,Cubic,225,Fm-3m,0.0,False,True
mp-2605,CaO,"Ca, O",2,0.0,Cubic,225,Fm-3m,3.6301000000000005,False,False
mp-505569,CeH2,"Ce, H",2,0.017444702424242564,Cubic,225,Fm-3m,0.0,False,True
mp-10192,LuP,"Lu, P",2,0.0,Cubic,225,Fm-3m,0.0,False,True
mp-974641,K3Tl,"K, Tl",2,0.08290952072321445,Cubic,225,Fm-3m,0.0,True,True
mp-1008786,MgTe,"Mg, Te",2,0.06860242499999991,Cubic,225,Fm-3m,0.42710000000000026,True,False
mp-241,CdF2,"Cd, F",2,0.0,Cubic,225,Fm-3m,2.8977000000000004,False,False
mp-387,CeSb,"Ce, Sb",2,0.0,Cubic,225,Fm-3m,0.0,False,True
mp-414,LuSe,"Lu, Se",2,0.0,Cubic,225,Fm-3m,0.0,False,True
mp-2563,CeSe,"Ce, Se",2,0.0,Cubic,225,Fm-3m,0.0,False,True
mp-29551,Na3Hg,"Hg, Na",2,0.01889395145833639,Cubic,225,Fm-3m,0.0,True,True
mp-2530,Li2Te,"Li, Te",2,0.0,Cubic,225,Fm-3m,2.4914,False,False
mp-1094614,MgGa3,"Ga, Mg",2,0.08062214468750062,Cubic,225,Fm-3m,0.0,True,True
mp-22926,LaBi,"Bi, La",2,0.0,Cubic,225,Fm-3m,0.0,False,True
mp-21009,EuSe,"Eu, Se",2,0.0,Cubic,225,Fm-3m,0.0,False,True
mp-20534,GdMg3,"Gd, Mg",2,0.004263581249999149,Cubic,225,Fm-3m,0.0,False,True
mp-568560,TlBr,"Br, Tl",2,0.004668182499997897,Cubic,225,Fm-3m,2.2962000000000002,False,False
mp-569639,TlCl,"Cl, Tl",2,0.006233657499997491,Cubic,225,Fm-3m,2.5369,False,False
mp-1186538,PmAu3,"Au, Pm",2,0.022579950000000792,Cubic,225,Fm-3m,0.0,True,True
mp-23245,ErBi,"Bi, Er",2,0.0,Cubic,225,Fm-3m,0.0,False,True
mp-1184994,KHg3,"Hg, K",2,0.034403511666660336,Cubic,225,Fm-3m,0.0,True,True
mp-30782,Sr6Mg23,"Mg, Sr",2,0.0022167174137930346,Cubic,225,Fm-3m,0.0,False,True
mp-1753,ThAs,"As, Th",2,0.0,Cubic,225,Fm-3m,0.0,False,True
mp-571059,YCd3,"Cd, Y",2,0.020065075000001542,Cubic,225,Fm-3m,0.0,False,True
mp-1186218,Nb3Os,"Nb, Os",2,0.01013321250000132,Cubic,225,Fm-3m,0.0,True,True
mp-10760,MgSe,"Mg, Se",2,0.01005978999999968,Cubic,225,Fm-3m,1.7609,False,False
mp-2470,DyS,"Dy, S",2,0.0,Cubic,225,Fm-3m,0.0,False,True
mp-867343,Li3Cd,"Cd, Li",2,0.00600666750000034,Cubic,225,Fm-3m,0.0,True,True
mp-1063245,Sr2Rh,"Rh, Sr",2,0.043910936666666345,Cubic,225,Fm-3m,0.0,False,True
mp-1187811,YAg3,"Ag, Y",2,0.059440931413043074,Cubic,225,Fm-3m,0.0,True,True
mp-2114,YN,"N, Y",2,0.0,Cubic,225,Fm-3m,0.1510000000000007,False,False
mp-1185090,K3Rb,"K, Rb",2,0.03211973518750044,Cubic,225,Fm-3m,0.0,True,True
mp-981,SrF2,"F, Sr",2,0.0,Cubic,225,Fm-3m,6.7674,False,False
mp-19079,CoO,"Co, O",2,0.03691499625000105,Cubic,225,Fm-3m,0.0,False,True
mp-656,LuS,"Lu, S",2,0.0,Cubic,225,Fm-3m,0.0,False,True
mp-1008376,CeH3,"Ce, H",2,0.04983053320312614,Cubic,225,Fm-3m,0.0,False,True
mp-1186017,Na3Ag,"Ag, Na",2,0.07943195812500115,Cubic,225,Fm-3m,0.0,True,True
mp-1187204,Ta3Pt,"Pt, Ta",2,0.05386375541666055,Cubic,225,Fm-3m,0.0,True,True
mp-1269,SmS,"S, Sm",2,0.0,Cubic,225,Fm-3m,0.0,False,True
mp-1187203,Ta3Re,"Re, Ta",2,0.0,Cubic,225,Fm-3m,0.0,True,True
mp-24721,RbH,"H, Rb",2,0.0,Cubic,225,Fm-3m,2.9163,False,False
mp-1748,NdS,"Nd, S",2,0.0,Cubic,225,Fm-3m,0.0,False,True
mp-1227285,BiPd3,"Bi, Pd",2,0.024378722499996286,Cubic,225,Fm-3m,0.0,True,True
mp-23268,NaI,"I, Na",2,0.0,Cubic,225,Fm-3m,3.5686999999999998,False,False
mp-635413,Cs3Bi,"Bi, Cs",2,0.0,Cubic,225,Fm-3m,0.17899999999999983,False,False
mp-1229100,Ag2Se,"Ag, Se",2,0.02534362000000101,Cubic,225,Fm-3m,0.09080000000000021,True,False
mp-1004753,PrB12,"B, Pr",2,0.06963110730769095,Cubic,225,Fm-3m,0.0,True,True
mp-708,LaAs,"As, La",2,0.0,Cubic,225,Fm-3m,0.0,False,True
mp-978882,SnBi3,"Bi, Sn",2,0.06973069374999996,Cubic,225,Fm-3m,0.0,True,True
mp-2597,InTe,"In, Te",2,0.03572749717105239,Cubic,225,Fm-3m,0.0,False,True
mp-1184226,Ga3Ag,"Ag, Ga",2,0.07294466239583386,Cubic,225,Fm-3m,0.0,True,True
mp-754545,NdO,"Nd, O",2,0.07795656000000051,Cubic,225,Fm-3m,0.0,True,True
mp-1187513,Tl3Cd,"Cd, Tl",2,0.08345047500000646,Cubic,225,Fm-3m,0.0,True,True
mp-1062676,K2Pt,"K, Pt",2,0.0,Cubic,225,Fm-3m,1.3146,False,False
mp-1254,LuTe,"Lu, Te",2,0.06045486499999697,Cubic,225,Fm-3m,0.0,False,True
mp-1206741,Si2Ir,"Ir, Si",2,0.058270887638890656,Cubic,225,Fm-3m,0.0,True,True
mp-8426,K2Se,"K, Se",2,0.0,Cubic,225,Fm-3m,2.0925000000000002,False,False
mp-20581,Ca3In,"Ca, In",2,0.08165825583333408,Cubic,225,Fm-3m,0.0,False,True
mp-974883,Rb3Na,"Na, Rb",2,0.04730255903017211,Cubic,225,Fm-3m,0.0,True,True
mp-15694,PaAs,"As, Pa",2,0.0,Cubic,225,Fm-3m,0.0,False,True
mp-972048,Zn6Mo,"Mo, Zn",2,0.0,Cubic,225,Fm-3m,0.0,False,True
mp-22745,Co9Se8,"Co, Se",2,0.08894231058823365,Cubic,225,Fm-3m,0.0,False,True
mp-1782,ScSe,"Sc, Se",2,0.0,Cubic,225,Fm-3m,0.0,False,True
mp-573697,CsCl,"Cl, Cs",2,0.007141250000000099,Cubic,225,Fm-3m,4.8482,False,False
mp-1476,ScS,"S, Sc",2,0.0,Cubic,225,Fm-3m,0.0,False,True
mp-510402,GdS,"Gd, S",2,0.0,Cubic,225,Fm-3m,0.0,False,True
mp-975929,Li3Ca,"Ca, Li",2,0.061178348958333295,Cubic,225,Fm-3m,0.0,True,True
mp-1186047,Na3In,"In, Na",2,0.04987562500000031,Cubic,225,Fm-3m,0.0,True,True
mp-1185499,LuAg3,"Ag, Lu",2,0.0648463075000052,Cubic,225,Fm-3m,0.0,True,True
mp-1104598,ErB12,"B, Er",2,0.0,Cubic,225,Fm-3m,0.0,False,True
mp-1206982,SbPb,"Pb, Sb",2,0.0394956800000017,Cubic,225,Fm-3m,0.0,True,True
mp-862755,PrCd3,"Cd, Pr",2,0.0023430399456536577,Cubic,225,Fm-3m,0.0,True,True
mp-24152,HoH2,"H, Ho",2,0.0,Cubic,225,Fm-3m,0.0,False,True
mp-2741,CaF2,"Ca, F",2,0.0,Cubic,225,Fm-3m,7.1157,False,False
mp-1193393,Er6Mn23,"Er, Mn",2,0.0015724046839089567,Cubic,225,Fm-3m,0.0,False,True
mp-1094464,Mg3Zn,"Mg, Zn",2,0.08568004365000026,Cubic,225,Fm-3m,0.0,True,True
mp-1004756,NdB12,"B, Nd",2,0.07411886807692092,Cubic,225,Fm-3m,0.0,True,True
mp-864984,MnV3,"Mn, V",2,0.01897389500000024,Cubic,225,Fm-3m,0.0,True,True
mp-11523,Ni3Sn,"Ni, Sn",2,0.04926727750000026,Cubic,225,Fm-3m,0.0,False,True