material_id,formula,elements,num_elements,energy_above_hull,crystal_system,spacegroup_number,spacegroup_symbol,band_gap,theoretical,is_metal
mp-1224847,FeRh,"Fe, Rh",2,0.07488492499999921,Trigonal,166,R-3m,0.0,True,True
mp-1271793,Co3O4,"Co, O",2,0.0,Trigonal,166,R-3m,0.0,True,True
mp-30638,ThFe3,"Fe, Th",2,0.008373485949613624,Trigonal,166,R-3m,0.0,False,True
mp-2451,YAl3,"Al, Y",2,0.011892777500001728,Trigonal,166,R-3m,0.0,False,True
mp-1094571,MgSb,"Mg, Sb",2,0.08826557854166683,Trigonal,166,R-3m,0.0,True,True
mp-567747,Co7Mo6,"Co, Mo",2,0.011532919358973714,Trigonal,166,R-3m,0.0,False,True
mp-1218218,TaFe,"Fe, Ta",2,0.0,Trigonal,166,R-3m,0.0,True,True
mp-1105569,Y2Fe17,"Fe, Y",2,0.020232452105263476,Trigonal,166,R-3m,0.0,False,True
mp-753746,Rb2O,"O, Rb",2,0.0,Trigonal,166,R-3m,0.4534,True,False
mp-12648,Ti2Be17,"Be, Ti",2,0.0001682199999999412,Trigonal,166,R-3m,0.0,False,True
mp-669713,Gd2Ni7,"Gd, Ni",2,0.0,Trigonal,166,R-3m,0.0,False,True
mp-1103885,Nb6Fe7,"Fe, Nb",2,0.0017899439053259414,Trigonal,166,R-3m,0.0,False,True
mp-1215575,ZnAu4,"Au, Zn",2,0.05841616899999735,Trigonal,166,R-3m,0.0,True,True
mp-21446,BaPb3,"Ba, Pb",2,0.0,Trigonal,166,R-3m,0.0,False,True
mp-34202,Bi2Te3,"Bi, Te",2,0.0,Trigonal,166,R-3m,0.3388,False,False
mp-1224388,Hf3N2,"Hf, N",2,0.0,Trigonal,166,R-3m,0.0,True,True
mp-16506,Li3Al2,"Al, Li",2,0.0,Trigonal,166,R-3m,0.0,False,True
mp-636403,PuNi3,"Ni, Pu",2,0.0,Trigonal,166,R-3m,0.0,False,True
mp-1221442,MoPd4,"Mo, Pd",2,0.011304352000003348,Trigonal,166,R-3m,0.0,True,True
mp-1217706,Tb2Ce,"Ce, Tb",2,0.021100406666672455,Trigonal,166,R-3m,0.0,True,True
mp-1222945,LaCe4,"Ce, La",2,0.07549109700000045,Trigonal,166,R-3m,0.0,True,True
mp-1222259,LuTh,"Lu, Th",2,0.039340661666678045,Trigonal,166,R-3m,0.0,True,True
mp-580062,Bi8Te9,"Bi, Te",2,0.007293502941178698,Trigonal,166,R-3m,0.08150000000000013,False,False
mp-1422029,MnS2,"Mn, S",2,0.0,Trigonal,166,R-3m,0.0,True,True
mp-880,Pr2Fe17,"Fe, Pr",2,0.056461181403507865,Trigonal,166,R-3m,0.0,False,True
mp-978288,MgNi,"Mg, Ni",2,0.05829954409722227,Trigonal,166,R-3m,0.0,True,True
mp-542327,Ce5Co19,"Ce, Co",2,0.010141929999999633,Trigonal,166,R-3m,0.0,False,True
mp-1217379,Th5C4,"C, Th",2,0.008746711111111694,Trigonal,166,R-3m,0.0,True,True
mp-1224869,Gd2C,"C, Gd",2,0.0,Trigonal,166,R-3m,0.0,True,True
mp-1220079,Ni2H,"H, Ni",2,0.04323114666666683,Trigonal,166,R-3m,0.0,True,True
mp-22327,PuGa3,"Ga, Pu",2,0.02194648749999928,Trigonal,166,R-3m,0.0,False,True
mp-568945,DyCo3,"Co, Dy",2,0.0,Trigonal,166,R-3m,0.0,False,True
mp-1229012,AgPd,"Ag, Pd",2,0.0,Trigonal,166,R-3m,0.0,True,True
mp-1225998,CoPt,"Co, Pt",2,0.05871391499999756,Trigonal,166,R-3m,0.0,True,True
mp-542177,PuAl3,"Al, Pu",2,0.012047820624999872,Trigonal,166,R-3m,0.0,False,True
mp-1219535,ReIr3,"Ir, Re",2,0.05176617374999637,Trigonal,166,R-3m,0.0,True,True
mp-22883,PbI2,"I, Pb",2,0.0010258233333315658,Trigonal,166,R-3m,2.4224,False,False
mp-568692,In4Br7,"Br, In",2,0.016080847215909078,Trigonal,166,R-3m,2.2604,False,False
mp-1272141,MnO2,"Mn, O",2,0.07234734555555633,Trigonal,166,R-3m,1.9395000000000002,True,False
mp-1188750,Nd2Ir7,"Ir, Nd",2,0.017483919074074095,Trigonal,166,R-3m,0.0,False,True
mp-1222310,Lu2C,"C, Lu",2,0.0,Trigonal,166,R-3m,0.0,True,True
mp-570872,CeCo3,"Ce, Co",2,0.011884309166667606,Trigonal,166,R-3m,0.0,False,True
mp-1226089,CoPt3,"Co, Pt",2,0.024843599999997856,Trigonal,166,R-3m,0.0,True,True
mp-697180,Mg3In,"In, Mg",2,0.0,Trigonal,166,R-3m,0.0,False,True
mp-573608,CdI2,"Cd, I",2,0.03892933011111044,Trigonal,166,R-3m,2.4107,True,False
mp-1105044,Nb6Ni7,"Nb, Ni",2,0.018445997358976562,Trigonal,166,R-3m,0.0,True,True
mp-714885,VO,"O, V",2,0.022484775208333474,Trigonal,166,R-3m,0.9010999999999996,True,False
mp-1080313,CeSe2,"Ce, Se",2,0.06388541333333109,Trigonal,166,R-3m,0.9877000000000002,True,False
mp-2764,LaNi3,"La, Ni",2,0.0017624329166672226,Trigonal,166,R-3m,0.0,False,True
mp-30709,La2Zn17,"La, Zn",2,0.0,Trigonal,166,R-3m,0.0,False,True
mp-1219522,RuRh4,"Rh, Ru",2,0.01354918599999877,Trigonal,166,R-3m,0.0,True,True
mp-1106330,Pr2Co7,"Co, Pr",2,0.041296095514404385,Trigonal,166,R-3m,0.0,False,True
mp-1201,Sb2Te3,"Sb, Te",2,0.0,Trigonal,166,R-3m,0.13140000000000018,False,False
mp-27505,Fe3Sn2,"Fe, Sn",2,0.0004480230000005747,Trigonal,166,R-3m,0.0,False,True
mp-1216290,VPd3,"Pd, V",2,0.09440577499999847,Trigonal,166,R-3m,0.0,True,True
mp-759946,Sc16O15,"O, Sc",2,0.05401600979838683,Trigonal,166,R-3m,0.0,True,True
mp-1224936,Fe15O16,"Fe, O",2,0.08401634241935518,Trigonal,166,R-3m,1.4826000000000001,True,False
mp-570400,Ba7Al10,"Al, Ba",2,0.0,Trigonal,166,R-3m,0.0,False,True
mp-998912,TlS,"S, Tl",2,0.06187879916666361,Trigonal,166,R-3m,0.0,False,True
mp-1226765,Ce4Sm,"Ce, Sm",2,0.06911200099999704,Trigonal,166,R-3m,0.0,True,True
mp-1217258,ThSc,"Sc, Th",2,0.07618503249999975,Trigonal,166,R-3m,0.0,True,True
mp-1219709,PtAu,"Au, Pt",2,0.012786540000007562,Trigonal,166,R-3m,0.0,True,True
mp-1232560,CrN,"Cr, N",2,0.04106475500000073,Trigonal,166,R-3m,0.0,True,True
mp-568233,CdI2,"Cd, I",2,0.0006928077777734742,Trigonal,166,R-3m,2.3662,True,False
mp-1105870,Nd2Co7,"Co, Nd",2,0.03292024682539463,Trigonal,166,R-3m,0.0,False,True
mp-2700,CaSi2,"Ca, Si",2,0.0030665416666675327,Trigonal,166,R-3m,0.0,False,True
mp-1215582,ZnNi4,"Ni, Zn",2,0.07282676799999965,Trigonal,166,R-3m,0.0,True,True
mp-540743,Th2Zn17,"Th, Zn",2,0.0,Trigonal,166,R-3m,0.0,False,True
mp-1095562,TbCo3,"Co, Tb",2,0.0,Trigonal,166,R-3m,0.0,False,True
mp-1222419,Li4Mg,"Li, Mg",2,0.010894633000000375,Trigonal,166,R-3m,0.0,True,True
mp-1222922,LaCe,"Ce, La",2,0.08540808499999741,Trigonal,166,R-3m,0.0,True,True
mp-569196,YNi3,"Ni, Y",2,0.0,Trigonal,166,R-3m,0.0,False,True
mp-1106107,Dy2Fe17,"Dy, Fe",2,0.021591266315791557,Trigonal,166,R-3m,0.0,False,True
mp-569783,ErFe3,"Er, Fe",2,0.0,Trigonal,166,R-3m,0.0,False,True
mp-1039529,CaMg2,"Ca, Mg",2,0.007080418333332172,Trigonal,166,R-3m,0.0,True,True
mp-567456,CaGe2,"Ca, Ge",2,0.0,Trigonal,166,R-3m,0.0,False,True
mp-1219484,SbPb4,"Pb, Sb",2,0.06522074799999444,Trigonal,166,R-3m,0.0,True,True
mp-573588,CdI2,"Cd, I",2,0.03862876594444353,Trigonal,166,R-3m,2.4027000000000003,True,False
mp-1105621,Pr2Co17,"Co, Pr",2,0.0,Trigonal,166,R-3m,0.0,False,True
mp-1227959,BaCa3,"Ba, Ca",2,0.038546502500000024,Trigonal,166,R-3m,0.0,True,True
mp-1104237,Nb7Ni6,"Nb, Ni",2,0.0,Trigonal,166,R-3m,0.0,False,True
mp-1219908,PdPt,"Pd, Pt",2,0.0,Trigonal,166,R-3m,0.0,True,True
mp-27637,NiBr2,"Br, Ni",2,0.0,Trigonal,166,R-3m,0.0,False,True
mp-1102392,YFe3,"Fe, Y",2,0.0,Trigonal,166,R-3m,0.0,False,True
mp-569595,PbI2,"I, Pb",2,0.0010332383333304662,Trigonal,166,R-3m,2.4080000000000004,False,False
mp-1220052,NiPt,"Ni, Pt",2,0.0400219549999985,Trigonal,166,R-3m,0.0,True,True
mp-1226864,Ce3Sc,"Ce, Sc",2,0.023797387500000156,Trigonal,166,R-3m,0.0,True,True
mp-1225761,Cu4Au,"Au, Cu",2,0.0940493460000007,Trigonal,166,R-3m,0.0,True,True
mp-1094247,MgSn,"Mg, Sn",2,0.03092936874999941,Trigonal,166,R-3m,0.0,True,True
mp-10264,NiTe,"Ni, Te",2,0.0,Trigonal,166,R-3m,0.0,False,True
mp-30441,Be17Nb2,"Be, Nb",2,0.0,Trigonal,166,R-3m,0.0,False,True
mp-1222693,LaTh,"La, Th",2,0.04245675750000544,Trigonal,166,R-3m,0.0,True,True
mp-654,Ce2Fe17,"Ce, Fe",2,0.04115396157894757,Trigonal,166,R-3m,0.0,False,True
mp-1222128,Mg3In,"In, Mg",2,0.07557631749999882,Trigonal,166,R-3m,0.0,True,True
mp-571149,Tb2Fe17,"Fe, Tb",2,0.01977555614035076,Trigonal,166,R-3m,0.0,False,True
mp-636105,MnGa,"Ga, Mn",2,0.05060490461538514,Trigonal,166,R-3m,0.0,False,True
mp-2544,Zr2Be17,"Be, Zr",2,0.0,Trigonal,166,R-3m,0.0,False,True
mp-1104372,Nb6Zn7,"Nb, Zn",2,0.0,Trigonal,166,R-3m,0.0,False,True
mp-1216527,TlIn,"In, Tl",2,0.02693615500000135,Trigonal,166,R-3m,0.0,True,True
mp-1219920,PdAu,"Au, Pd",2,0.00044466625000438853,Trigonal,166,R-3m,0.0,True,True
mp-1102684,TmNi3,"Ni, Tm",2,0.0,Trigonal,166,R-3m,0.0,False,True
mp-23174,ReCl3,"Cl, Re",2,0.0,Trigonal,166,R-3m,0.9667999999999999,False,False
mp-1180973,MgO,"Mg, O",2,0.059728529999999225,Trigonal,166,R-3m,3.8943000000000003,True,False
mp-571334,PrCo3,"Co, Pr",2,0.02813255115740887,Trigonal,166,R-3m,0.0,False,True
mp-510322,UCo5,"Co, U",2,0.044794809999999075,Trigonal,166,R-3m,0.0,False,True
mp-27507,ScCl,"Cl, Sc",2,0.02138946274999931,Trigonal,166,R-3m,0.0,False,True
mp-569100,LaRh3,"La, Rh",2,0.0037921279166681643,Trigonal,166,R-3m,0.0,False,True
mp-1217106,Ti2C,"C, Ti",2,0.01383349333333328,Trigonal,166,R-3m,0.0,True,True
mp-1188496,Dy2Co7,"Co, Dy",2,0.00912080424242312,Trigonal,166,R-3m,0.0,False,True
mp-1215529,ZnCu3,"Cu, Zn",2,0.02499069750000027,Trigonal,166,R-3m,0.0,True,True
mp-1217090,Ti8C5,"C, Ti",2,0.02810462461538421,Trigonal,166,R-3m,0.0,True,True
mp-27771,Nb3Br8,"Br, Nb",2,0.0,Trigonal,166,R-3m,0.03069999999999995,False,False
mp-27924,TbBr,"Br, Tb",2,0.0,Trigonal,166,R-3m,0.0,False,True
mp-1191306,Sm5Co19,"Co, Sm",2,0.03938054266145752,Trigonal,166,R-3m,0.0,False,True
mp-1226076,CoNi,"Co, Ni",2,0.030279887499997216,Trigonal,166,R-3m,0.0,True,True
mp-27440,ZrCl,"Cl, Zr",2,0.0,Trigonal,166,R-3m,0.0,False,True
mp-1189067,Tb2Co17,"Co, Tb",2,0.0,Trigonal,166,R-3m,0.0,False,True
mp-20050,InP3,"In, P",2,0.055239914761905595,Trigonal,166,R-3m,0.0,False,True
mp-570369,Ce16Ru9,"Ce, Ru",2,0.0,Trigonal,166,R-3m,0.0,False,True
mp-1223654,InPb,"In, Pb",2,0.020862960000002317,Trigonal,166,R-3m,0.0,True,True
mp-1802,NbS2,"Nb, S",2,0.04432992666666724,Trigonal,166,R-3m,0.0,False,True
mp-1220069,NdTh,"Nd, Th",2,0.048836811250005496,Trigonal,166,R-3m,0.0,True,True
mp-23290,PtCl2,"Cl, Pt",2,0.0,Trigonal,166,R-3m,1.7917,False,False
mp-1217395,Th4C3,"C, Th",2,0.0,Trigonal,166,R-3m,0.0,True,True
mp-7250,Nb6Co7,"Co, Nb",2,0.005622903410255731,Trigonal,166,R-3m,0.0,False,True
mp-1109,Sr5Al9,"Al, Sr",2,0.0,Trigonal,166,R-3m,0.0,False,True
mp-27607,Bi4Se3,"Bi, Se",2,0.0,Trigonal,166,R-3m,0.0,False,True
mp-1226338,CrNi3,"Cr, Ni",2,0.06863412999999952,Trigonal,166,R-3m,0.0,True,True
mp-542615,Bi3Se4,"Bi, Se",2,0.03193390785714367,Trigonal,166,R-3m,0.0,False,True
mp-1223860,IrRu,"Ir, Ru",2,0.034456776875003925,Trigonal,166,R-3m,0.0,True,True
mp-25424,MnO2,"Mn, O",2,0.0608851422222223,Trigonal,166,R-3m,1.5791000000000002,True,False
mp-1220071,NiIr,"Ir, Ni",2,0.03506355500000069,Trigonal,166,R-3m,0.0,True,True
mp-1080111,B3Mo,"B, Mo",2,0.002544879374999809,Trigonal,166,R-3m,0.0,True,True
mp-1105544,Sm2Co17,"Co, Sm",2,0.0,Trigonal,166,R-3m,0.0,False,True
mp-20132,InHg,"Hg, In",2,0.0,Trigonal,166,R-3m,0.0,False,True
mp-1013526,VS2,"S, V",2,0.017861314999999323,Trigonal,166,R-3m,0.0,True,True
mp-1424931,VS2,"S, V",2,0.01808877333333303,Trigonal,166,R-3m,0.0,True,True
mp-1226726,CdAg,"Ag, Cd",2,0.019684965000003274,Trigonal,166,R-3m,0.0,True,True
mp-1080337,CeSe2,"Ce, Se",2,0.057948561666664844,Trigonal,166,R-3m,1.0305000000000002,True,False
mp-1426,Sm2Fe17,"Fe, Sm",2,0.02286130263157915,Trigonal,166,R-3m,0.0,False,True
mp-1226027,CoIr,"Co, Ir",2,0.04255706250000202,Trigonal,166,R-3m,0.0,True,True
mp-1220274,Nd2Y,"Nd, Y",2,0.04194552833333631,Trigonal,166,R-3m,0.0,True,True
mp-1189465,Tm2Co7,"Co, Tm",2,0.0018861816239317264,Trigonal,166,R-3m,0.0,False,True
mp-672671,PbI2,"I, Pb",2,0.008445963888886965,Trigonal,166,R-3m,2.3308,True,False
mp-30714,Tm2Zn17,"Tm, Zn",2,0.0,Trigonal,166,R-3m,0.0,False,True
mp-541837,Bi2Se3,"Bi, Se",2,0.0,Trigonal,166,R-3m,0.3769,False,False
mp-1094310,SrMg2,"Mg, Sr",2,0.010539318333333103,Trigonal,166,R-3m,0.0,True,True
mp-1217267,ThHg,"Hg, Th",2,0.09863594666666842,Trigonal,166,R-3m,0.0,True,True
mp-558110,TiS2,"S, Ti",2,0.0019210499999999797,Trigonal,166,R-3m,0.0,False,True
mp-1189382,La2Co7,"Co, La",2,0.029885577391304707,Trigonal,166,R-3m,0.0,False,True
mp-1226736,CdAg3,"Ag, Cd",2,0.03877446749999791,Trigonal,166,R-3m,0.0,True,True
mp-1591,Al4C3,"Al, C",2,0.0,Trigonal,166,R-3m,1.3154000000000003,False,False
mp-22003,NaN3,"N, Na",2,0.0,Trigonal,166,R-3m,4.0268,False,False
mp-542437,Gd2Zn17,"Gd, Zn",2,0.0,Trigonal,166,R-3m,0.0,False,True
mp-356,Nd2Co17,"Co, Nd",2,0.0,Trigonal,166,R-3m,0.0,False,True
mp-7542,GeP3,"Ge, P",2,0.047297933095238776,Trigonal,166,R-3m,0.0,False,True
mp-2876153,DyMn2,"Dy, Mn",2,0.054595168333335664,Trigonal,166,R-3m,0.0,True,True
mp-1106140,Y2Co17,"Co, Y",2,0.0,Trigonal,166,R-3m,0.0,False,True
mp-1223665,IrPt,"Ir, Pt",2,0.08143478500000612,Trigonal,166,R-3m,0.0,True,True
mp-30964,Dy2Zn17,"Dy, Zn",2,0.0,Trigonal,166,R-3m,0.0,False,True
mp-1189779,Pr2Ni7,"Ni, Pr",2,5.357277775708269e-05,Trigonal,166,R-3m,0.0,False,True
mp-755671,MnO2,"Mn, O",2,0.05984685722222238,Trigonal,166,R-3m,0.0,True,True
mp-755523,TaS2,"S, Ta",2,0.01669282166666619,Trigonal,166,R-3m,0.0,False,True
mp-1095461,NdCo3,"Co, Nd",2,0.016893184508930403,Trigonal,166,R-3m,0.0,False,True
mp-574189,PbI2,"I, Pb",2,0.004283574166664916,Trigonal,166,R-3m,2.1569000000000003,True,False
mp-1220205,Nd5S4,"Nd, S",2,0.053334269166668946,Trigonal,166,R-3m,0.0,True,True
mp-1216546,Tm2C,"C, Tm",2,0.0,Trigonal,166,R-3m,0.0,True,True
mp-27587,Li8Pb3,"Li, Pb",2,0.0,Trigonal,166,R-3m,0.0,False,True
mp-1223797,HoTh,"Ho, Th",2,0.030675892500006796,Trigonal,166,R-3m,0.0,True,True
mp-1189920,Th2Ni7,"Ni, Th",2,0.0003467552777776106,Trigonal,166,R-3m,0.0,False,True
mp-21293,Li3In2,"In, Li",2,0.0,Trigonal,166,R-3m,0.0,False,True
mp-25234,CoO2,"Co, O",2,0.08874155166666586,Trigonal,166,R-3m,0.0,True,True
mp-1225677,CuAu,"Au, Cu",2,0.07217244500000009,Trigonal,166,R-3m,0.0,True,True
mp-18063,SrSn3,"Sn, Sr",2,0.027413276041663437,Trigonal,166,R-3m,0.0,False,True
mp-1104334,Nb7Co6,"Co, Nb",2,0.0,Trigonal,166,R-3m,0.0,False,True
mp-567306,Li3Ga7,"Ga, Li",2,0.024923377700000415,Trigonal,166,R-3m,0.0,True,True
mp-1103465,TiBe3,"Be, Ti",2,0.0,Trigonal,166,R-3m,0.0,False,True
mp-1183535,Br2Cl3,"Br, Cl",2,0.0341352439999989,Trigonal,166,R-3m,0.0,True,True
mp-1101882,NdIr3,"Ir, Nd",2,0.0,Trigonal,166,R-3m,0.0,False,True
mp-1189958,TbAl3,"Al, Tb",2,0.020087030750001844,Trigonal,166,R-3m,0.0,False,True
mp-644311,CuPt,"Cu, Pt",2,0.0,Trigonal,166,R-3m,0.0,False,True
mp-1219177,Sm2C,"C, Sm",2,0.0,Trigonal,166,R-3m,0.0,True,True
mp-31100,CeIr3,"Ce, Ir",2,0.004136034583334336,Trigonal,166,R-3m,0.0,False,True
mp-1442954,CrS2,"Cr, S",2,0.029461006666667622,Trigonal,166,R-3m,0.0,True,True
mp-1221429,MoPd3,"Mo, Pd",2,0.03232882500000045,Trigonal,166,R-3m,0.0,True,True
mp-504594,ZrBr,"Br, Zr",2,0.0,Trigonal,166,R-3m,0.0,False,True
mp-640058,PbI2,"I, Pb",2,0.005042843888886761,Trigonal,166,R-3m,2.4269,True,False
mp-1105997,Ca2Ni7,"Ca, Ni",2,0.0,Trigonal,166,R-3m,0.0,False,True
mp-27484,Tl2O,"O, Tl",2,0.0,Trigonal,166,R-3m,0.5717000000000003,False,False
mp-559400,BeF2,"Be, F",2,0.002427875555556014,Trigonal,166,R-3m,7.8758,True,False
mp-1104548,Ta7Co6,"Co, Ta",2,0.0014632612820477675,Trigonal,166,R-3m,0.0,False,True
mp-865373,YCo,"Co, Y",2,0.0,Trigonal,166,R-3m,0.0,True,True
mp-574339,Y2Ni7,"Ni, Y",2,0.0,Trigonal,166,R-3m,0.0,False,True
mp-9897,Te3As2,"As, Te",2,0.02321317550000046,Trigonal,166,R-3m,0.39010000000000034,False,False
mp-9889,GaS,"Ga, S",2,0.004907736250000738,Trigonal,166,R-3m,1.8664999999999998,False,False
mp-27705,Li2Si,"Li, Si",2,0.04299721230158671,Trigonal,166,R-3m,0.0,False,True
mp-1224967,FeIr,"Fe, Ir",2,0.06352662833333333,Trigonal,166,R-3m,0.0,True,True
mp-1094479,MgZr,"Mg, Zr",2,0.07173924249999963,Trigonal,166,R-3m,0.0,True,True
mp-1223945,HgAu4,"Au, Hg",2,0.05550472459999867,Trigonal,166,R-3m,0.0,True,True
mp-1040468,Si3H,"H, Si",2,0.031946679218749274,Trigonal,166,R-3m,0.9013999999999998,True,False
mp-1188908,La2Ni7,"La, Ni",2,0.0,Trigonal,166,R-3m,0.0,False,True
mp-1189402,Ta2Be17,"Be, Ta",2,0.0,Trigonal,166,R-3m,0.0,False,True
mp-1227257,CaC2,"C, Ca",2,0.05558407833333323,Trigonal,166,R-3m,2.7708999999999997,True,False
mp-22881,CdCl2,"Cd, Cl",2,0.0,Trigonal,166,R-3m,3.5244,False,False
mp-11693,TePt,"Pt, Te",2,0.0,Trigonal,166,R-3m,0.0,False,True
mp-1220057,NiPd,"Ni, Pd",2,0.04264195000000015,Trigonal,166,R-3m,0.0,True,True
mp-569509,Er2Co7,"Co, Er",2,0.0050500670033652995,Trigonal,166,R-3m,0.0,False,True
mp-1217298,Th5C,"C, Th",2,0.0,Trigonal,166,R-3m,0.0,True,True
mp-1101053,SmCo3,"Co, Sm",2,0.05808613354166603,Trigonal,166,R-3m,0.0,False,True
mp-1189949,Lu2Co7,"Co, Lu",2,0.0,Trigonal,166,R-3m,0.0,False,True
mp-1224977,FeCu4,"Cu, Fe",2,0.06159888599999963,Trigonal,166,R-3m,0.0,True,True
mp-467,Th3N4,"N, Th",2,0.0,Trigonal,166,R-3m,1.4415000000000004,False,False
mp-12826,Sb8Te3,"Sb, Te",2,0.0029677367532485732,Trigonal,166,R-3m,0.0,True,True
mp-1225701,CuPd,"Cu, Pd",2,0.045885379999997866,Trigonal,166,R-3m,0.0,True,True
mp-1095497,YIr3,"Ir, Y",2,0.015700779999995973,Trigonal,166,R-3m,0.0,False,True
mp-1180271,MgO2,"Mg, O",2,0.0805988937500004,Trigonal,166,R-3m,2.3801,True,False
mp-1238872,CuCl2,"Cl, Cu",2,0.08664603666666615,Trigonal,166,R-3m,0.0,True,True
mp-568342,TbCl,"Cl, Tb",2,0.07272324333333557,Trigonal,166,R-3m,0.0,False,True
mp-1103088,DyAl3,"Al, Dy",2,0.008262890000001022,Trigonal,166,R-3m,0.0,False,True
mp-1102167,CaNi3,"Ca, Ni",2,2.671666666742567e-05,Trigonal,166,R-3m,0.0,False,True
mp-2686,Ca2N,"Ca, N",2,0.0,Trigonal,166,R-3m,0.0,False,True
mp-1226523,CeTh,"Ce, Th",2,0.020711455000004264,Trigonal,166,R-3m,0.0,True,True
mp-1190284,Bi8Se9,"Bi, Se",2,0.0,Trigonal,166,R-3m,0.002500000000000391,False,False
mp-1191011,Pr5Ni19,"Ni, Pr",2,0.0031810827083322835,Trigonal,166,R-3m,0.0,False,True
mp-1102054,TbNi3,"Ni, Tb",2,0.0,Trigonal,166,R-3m,0.0,False,True
mp-1224883,FePd3,"Fe, Pd",2,0.045818382500000254,Trigonal,166,R-3m,0.0,True,True
mp-27410,Sn4P3,"P, Sn",2,0.012068922142859151,Trigonal,166,R-3m,0.0,False,True
mp-1220515,Nb4C3,"C, Nb",2,0.054110071428569384,Trigonal,166,R-3m,0.0,True,True
mp-1413688,CrS2,"Cr, S",2,0.0530971933333344,Trigonal,166,R-3m,0.0,True,True
mp-29617,V3Sb2,"Sb, V",2,0.00933339299999858,Trigonal,166,R-3m,0.0,False,True
mp-1219734,PtRh,"Pt, Rh",2,0.019327256250001312,Trigonal,166,R-3m,0.0,True,True
mp-1190965,Pr5Co19,"Co, Pr",2,0.02422137852623507,Trigonal,166,R-3m,0.0,False,True
mp-1182452,CrGa,"Cr, Ga",2,0.08224818605769002,Trigonal,166,R-3m,0.0,False,True
mp-1218179,TaCo,"Co, Ta",2,0.006195417666669201,Trigonal,166,R-3m,0.0,True,True
mp-865205,Dy2Ni7,"Dy, Ni",2,0.0,Trigonal,166,R-3m,0.0,False,True
mp-1190346,La2Rh7,"La, Rh",2,0.026713662777778424,Trigonal,166,R-3m,0.0,False,True
mp-1220038,OsPt3,"Os, Pt",2,0.07770958249999893,Trigonal,166,R-3m,0.0,True,True
mp-1229092,AgAu,"Ag, Au",2,0.0010732125000103565,Trigonal,166,R-3m,0.0,True,True
mp-7541,SnP3,"P, Sn",2,0.0,Trigonal,166,R-3m,0.0,False,True
mp-640862,Sb16Te3,"Sb, Te",2,0.0,Trigonal,166,R-3m,0.0,True,True
mp-30558,HoCo3,"Co, Ho",2,0.0,Trigonal,166,R-3m,0.0,False,True
mp-1225448,ErTh,"Er, Th",2,0.037090858333343135,Trigonal,166,R-3m,0.0,True,True
mp-28105,Ni17S18,"Ni, S",2,0.08686903723809447,Trigonal,166,R-3m,0.0,False,True
mp-2588,YCo3,"Co, Y",2,0.05055418807692291,Trigonal,166,R-3m,0.0,False,True
mp-1100319,Ni15O16,"Ni, O",2,0.026814349838709894,Trigonal,166,R-3m,0.0,True,True
mp-1101986,GdNi3,"Gd, Ni",2,0.0,Trigonal,166,R-3m,0.0,False,True
mp-1216519,TlHg,"Hg, Tl",2,0.0242475733333265,Trigonal,166,R-3m,0.0,True,True
mp-541885,In3Te4,"In, Te",2,0.0681322235714319,Trigonal,166,R-3m,0.0,False,True
mp-1221235,Na3Si34,"Na, Si",2,0.05178974374999967,Trigonal,166,R-3m,0.0,True,True
mp-1192051,Nd5Ni19,"Nd, Ni",2,0.0,Trigonal,166,R-3m,0.0,False,True
mp-1221111,NbFe,"Fe, Nb",2,0.0,Trigonal,166,R-3m,0.0,True,True
mp-12531,Sn4As3,"As, Sn",2,0.0,Trigonal,166,R-3m,0.0,False,True
mp-1223677,Ir4Os,"Ir, Os",2,0.026585212000000524,Trigonal,166,R-3m,0.0,True,True
mp-1227459,BiPb4,"Bi, Pb",2,0.022429714000002043,Trigonal,166,R-3m,0.0,True,True
mp-1102065,HoAl3,"Al, Ho",2,0.005573307916668213,Trigonal,166,R-3m,0.0,False,True
mp-7988,Cs2O,"Cs, O",2,0.0,Trigonal,166,R-3m,0.5831999999999997,False,False
mp-28395,B6P,"B, P",2,0.0,Trigonal,166,R-3m,2.4757,False,False
mp-568289,CdI2,"Cd, I",2,0.00205046066666581,Trigonal,166,R-3m,2.3663,False,False
mp-1038779,MgAl,"Al, Mg",2,0.0753495687500001,Trigonal,166,R-3m,0.0,True,True
mp-1190236,La2Ir7,"Ir, La",2,0.020186647222223186,Trigonal,166,R-3m,0.0,False,True