material_id,formula,elements,num_elements,energy_above_hull,crystal_system,spacegroup_number,spacegroup_symbol,band_gap,theoretical,is_metal
mp-22138,GdCd3,"Cd, Gd",2,0.0,Hexagonal,194,P6_3/mmc,0.0,False,True
mp-542377,Na9Sn4,"Na, Sn",2,0.0,Hexagonal,194,P6_3/mmc,0.0,True,True
mp-1185473,Lu3Sn,"Lu, Sn",2,0.08493846708333308,Hexagonal,194,P6_3/mmc,0.0,True,True
mp-14018,K3As,"As, K",2,0.0,Hexagonal,194,P6_3/mmc,0.11180000000000001,False,False
mp-864995,DyAl3,"Al, Dy",2,0.0,Hexagonal,194,P6_3/mmc,0.0,True,True
mp-862604,Re3Ni,"Ni, Re",2,0.0,Hexagonal,194,P6_3/mmc,0.0,True,True
mp-1222741,LaY,"La, Y",2,0.07348426249999918,Hexagonal,194,P6_3/mmc,0.0,True,True
mp-261,Ba3Al5,"Al, Ba",2,0.007397125714286634,Hexagonal,194,P6_3/mmc,0.0,False,True
mp-1187827,TlIn3,"In, Tl",2,0.03078497750000153,Hexagonal,194,P6_3/mmc,0.0,True,True
mp-973539,LuAl3,"Al, Lu",2,0.008611923750001083,Hexagonal,194,P6_3/mmc,0.0,True,True
mp-981249,Y3Tm,"Tm, Y",2,0.0,Hexagonal,194,P6_3/mmc,0.0,True,True
mp-1184058,GaNi3,"Ga, Ni",2,0.0172701875000012,Hexagonal,194,P6_3/mmc,0.0,True,True
mp-1185530,LuZr3,"Lu, Zr",2,0.0,Hexagonal,194,P6_3/mmc,0.0,True,True
mp-1080667,AlCo3,"Al, Co",2,0.09986871625000049,Hexagonal,194,P6_3/mmc,0.0,True,True
mp-1183600,CaPr3,"Ca, Pr",2,0.08165463500000314,Hexagonal,194,P6_3/mmc,0.0,True,True
mp-7759,BaSn3,"Ba, Sn",2,0.0,Hexagonal,194,P6_3/mmc,0.0,False,True
mp-1182102,BaH2,"Ba, H",2,0.025776989999999333,Hexagonal,194,P6_3/mmc,1.6461000000000001,True,False
mp-1018019,PbS,"Pb, S",2,0.061973434999998744,Hexagonal,194,P6_3/mmc,0.0118999999999998,True,False
mp-28572,LaBr2,"Br, La",2,0.0,Hexagonal,194,P6_3/mmc,0.5885000000000002,False,False
mp-938875,Mg3Sn,"Mg, Sn",2,0.047047388749999364,Hexagonal,194,P6_3/mmc,0.0,True,True
mp-1822,TiAs,"As, Ti",2,0.0,Hexagonal,194,P6_3/mmc,0.0,False,True
mp-10744,Si3Pt2,"Pt, Si",2,0.013293738999998084,Hexagonal,194,P6_3/mmc,0.0,False,True
mp-16511,Mn3Al10,"Al, Mn",2,0.009341258520708884,Hexagonal,194,P6_3/mmc,0.0,False,True
mp-1185255,Li3Rh,"Li, Rh",2,0.0696642879166669,Hexagonal,194,P6_3/mmc,0.0,True,True
mp-30498,TbCd3,"Cd, Tb",2,0.003049010000000685,Hexagonal,194,P6_3/mmc,0.0,False,True
mp-1183517,CaCd3,"Ca, Cd",2,0.002229437812499624,Hexagonal,194,P6_3/mmc,0.0,True,True
mp-866184,Ti3Pb,"Pb, Ti",2,0.0,Hexagonal,194,P6_3/mmc,0.0,True,True
mp-978088,PrLu3,"Lu, Pr",2,0.006979634583338168,Hexagonal,194,P6_3/mmc,0.0,True,True
mp-1184670,Hf3Al,"Al, Hf",2,0.019307109583330373,Hexagonal,194,P6_3/mmc,0.0,True,True
mp-1186013,MnPd3,"Mn, Pd",2,0.014686219999997974,Hexagonal,194,P6_3/mmc,0.0,True,True
mp-1186730,Pr3Sc,"Pr, Sc",2,0.06740582000000117,Hexagonal,194,P6_3/mmc,0.0,True,True
mp-1183264,AcPm3,"Ac, Pm",2,0.03833315874999954,Hexagonal,194,P6_3/mmc,0.0,True,True
mp-1198409,Sm13Zn58,"Sm, Zn",2,0.0,Hexagonal,194,P6_3/mmc,0.08980000000000032,False,False
mp-30875,Ti2Sn,"Sn, Ti",2,0.0,Hexagonal,194,P6_3/mmc,0.0,False,True
mp-24809,CaH2,"Ca, H",2,0.06094134083333369,Hexagonal,194,P6_3/mmc,0.6536000000000004,False,False
mp-1187375,TbEu3,"Eu, Tb",2,0.07625067875000013,Hexagonal,194,P6_3/mmc,0.0,True,True
mp-1025443,ThCd3,"Cd, Th",2,0.0,Hexagonal,194,P6_3/mmc,0.0,False,True
mp-1039495,Mg2Cd,"Cd, Mg",2,0.08823363361111114,Hexagonal,194,P6_3/mmc,0.0,True,True
mp-864915,HfBr3,"Br, Hf",2,0.06504935570312398,Hexagonal,194,P6_3/mmc,0.0,True,True
mp-1183122,Ac3Si,"Ac, Si",2,0.08114728500000012,Hexagonal,194,P6_3/mmc,0.0,True,True
mp-1183856,DyEr3,"Dy, Er",2,0.011982068750000963,Hexagonal,194,P6_3/mmc,0.0,True,True
mp-975834,MoRu3,"Mo, Ru",2,0.0,Hexagonal,194,P6_3/mmc,0.0,True,True
mp-567526,SrMg4,"Mg, Sr",2,0.04522772922222229,Hexagonal,194,P6_3/mmc,0.0,False,True
mp-862259,Sc3Al,"Al, Sc",2,0.0,Hexagonal,194,P6_3/mmc,0.0,True,True
mp-978262,MgTl3,"Mg, Tl",2,0.051357820833329626,Hexagonal,194,P6_3/mmc,0.0,True,True
mp-1186976,Sc3Sn,"Sc, Sn",2,0.0,Hexagonal,194,P6_3/mmc,0.0,True,True
mp-1187088,SnHg3,"Hg, Sn",2,0.09606424500000088,Hexagonal,194,P6_3/mmc,0.0,True,True
mp-568630,LuRu2,"Lu, Ru",2,0.0,Hexagonal,194,P6_3/mmc,0.0,False,True
mp-972534,SmDy3,"Dy, Sm",2,0.0107179550000005,Hexagonal,194,P6_3/mmc,0.0,True,True
mp-980660,Tm3Mg,"Mg, Tm",2,0.04830036499999579,Hexagonal,194,P6_3/mmc,0.0,True,True
mp-1186504,Pm3Dy,"Dy, Pm",2,0.021592566874996777,Hexagonal,194,P6_3/mmc,0.0,True,True
mp-1116,Sr2Mg17,"Mg, Sr",2,0.023332300263158468,Hexagonal,194,P6_3/mmc,0.0,False,True
mp-865464,PmSi3,"Pm, Si",2,0.0,Hexagonal,194,P6_3/mmc,0.0,True,True
mp-8723,AsF5,"As, F",2,0.0,Hexagonal,194,P6_3/mmc,4.6002,False,False
mp-865521,LuI3,"I, Lu",2,0.0,Hexagonal,194,P6_3/mmc,2.1804,True,False
mp-1094034,Ti3C2,"C, Ti",2,0.04971524400000149,Hexagonal,194,P6_3/mmc,0.0,True,True
mp-580102,Gd2Ni17,"Gd, Ni",2,0.007283158157893155,Hexagonal,194,P6_3/mmc,0.0,False,True
mp-20074,SrIn2,"In, Sr",2,0.0,Hexagonal,194,P6_3/mmc,0.0,False,True
mp-984699,BaSr3,"Ba, Sr",2,0.025372261250001582,Hexagonal,194,P6_3/mmc,0.0,True,True
mp-862586,Re3Pd,"Pd, Re",2,0.0,Hexagonal,194,P6_3/mmc,0.0,True,True
mp-582240,Sm13Cd58,"Cd, Sm",2,0.017322512035851778,Hexagonal,194,P6_3/mmc,0.0,False,True
mp-2072,KTe,"K, Te",2,0.0,Hexagonal,194,P6_3/mmc,0.6708999999999998,False,False
mp-1103739,LuRe2,"Lu, Re",2,0.0,Hexagonal,194,P6_3/mmc,0.0,False,True
mp-1184368,FeRh3,"Fe, Rh",2,0.0,Hexagonal,194,P6_3/mmc,0.0,True,True
mp-1183271,Ac3Eu,"Ac, Eu",2,0.015198531875000754,Hexagonal,194,P6_3/mmc,0.0,True,True
mp-1006351,CeY3,"Ce, Y",2,0.07523220999999936,Hexagonal,194,P6_3/mmc,0.0,True,True
mp-1186056,Na3Mg,"Mg, Na",2,0.09083133489585782,Hexagonal,194,P6_3/mmc,0.0,True,True
mp-1628,TeRh,"Rh, Te",2,0.02888154250000241,Hexagonal,194,P6_3/mmc,0.0,False,True
mp-1184174,Dy3Lu,"Dy, Lu",2,0.0018715370833319867,Hexagonal,194,P6_3/mmc,0.0,True,True
mp-1183346,BaCa3,"Ba, Ca",2,0.037178258750000026,Hexagonal,194,P6_3/mmc,0.0,True,True
mp-865960,CoRe3,"Co, Re",2,0.0,Hexagonal,194,P6_3/mmc,0.0,True,True
mp-30672,Ti3Ga,"Ga, Ti",2,0.0,Hexagonal,194,P6_3/mmc,0.0,False,True
mp-1183223,AlAu3,"Al, Au",2,0.06608989187500214,Hexagonal,194,P6_3/mmc,0.0,True,True
mp-2341,Li3N,"Li, N",2,0.003927161250000033,Hexagonal,194,P6_3/mmc,1.218,False,False
mp-1018807,MoSe2,"Mo, Se",2,0.003325393333334148,Hexagonal,194,P6_3/mmc,1.2543999999999995,False,False
mp-1184517,In3Ag,"Ag, In",2,0.0847196254861089,Hexagonal,194,P6_3/mmc,0.0,True,True
mp-12735,KAg2,"Ag, K",2,0.009690792916664748,Hexagonal,194,P6_3/mmc,0.0,False,True
mp-11220,Sc2Al,"Al, Sc",2,0.0,Hexagonal,194,P6_3/mmc,0.0,False,True
mp-865022,MnIr3,"Ir, Mn",2,0.0,Hexagonal,194,P6_3/mmc,0.0,True,True
mp-2207,NbSe2,"Nb, Se",2,0.0,Hexagonal,194,P6_3/mmc,0.0,False,True
mp-1187299,Tb3In,"In, Tb",2,0.007641074999998665,Hexagonal,194,P6_3/mmc,0.0,True,True
mp-1184899,HoTm3,"Ho, Tm",2,0.0,Hexagonal,194,P6_3/mmc,0.0,True,True
mp-203,NiTe,"Ni, Te",2,0.0367225100000006,Hexagonal,194,P6_3/mmc,0.0,False,True
mp-1201649,Ti2Be17,"Be, Ti",2,0.0,Hexagonal,194,P6_3/mmc,0.0,False,True
mp-1186303,NdCd3,"Cd, Nd",2,0.0020782612499985476,Hexagonal,194,P6_3/mmc,0.0,True,True
mp-975341,La3Mg,"La, Mg",2,0.05328924125000167,Hexagonal,194,P6_3/mmc,0.0,True,True
mp-1006323,CeLu3,"Ce, Lu",2,0.024845188749999636,Hexagonal,194,P6_3/mmc,0.0,True,True
mp-976930,Ni3As,"As, Ni",2,0.08089684604166791,Hexagonal,194,P6_3/mmc,0.0,True,True
mp-867229,RbSn3,"Rb, Sn",2,0.016086287812498767,Hexagonal,194,P6_3/mmc,0.0,True,True
mp-979973,Sm3Tm,"Sm, Tm",2,0.010107958749998147,Hexagonal,194,P6_3/mmc,0.0,True,True
mp-1188042,ZrHg3,"Hg, Zr",2,0.0456927112499983,Hexagonal,194,P6_3/mmc,0.0,True,True
mp-1078873,Mn3Ge,"Ge, Mn",2,0.06824303249999986,Hexagonal,194,P6_3/mmc,0.0,False,True
mp-567926,B4Rh5,"B, Rh",2,0.0,Hexagonal,194,P6_3/mmc,0.0,False,True
mp-571003,NaC64,"C, Na",2,0.014140242286472926,Hexagonal,194,P6_3/mmc,0.0,False,True
mp-1080132,EuHg3,"Eu, Hg",2,0.0,Hexagonal,194,P6_3/mmc,0.0,False,True
mp-862696,CeGa3,"Ce, Ga",2,0.0,Hexagonal,194,P6_3/mmc,0.0,True,True
mp-1187258,TaRu3,"Ru, Ta",2,0.020737701249998963,Hexagonal,194,P6_3/mmc,0.0,True,True
mp-23227,CuBr,"Br, Cu",2,0.041542662499999494,Hexagonal,194,P6_3/mmc,0.43210000000000015,False,False
mp-1185697,MgBi3,"Bi, Mg",2,0.0825920987499984,Hexagonal,194,P6_3/mmc,0.0,True,True
mp-20485,InSe,"In, Se",2,0.0,Hexagonal,194,P6_3/mmc,0.4590000000000001,False,False
mp-1306,ThAl3,"Al, Th",2,0.0,Hexagonal,194,P6_3/mmc,0.0,False,True
mp-976823,LaPm3,"La, Pm",2,0.029313474374998094,Hexagonal,194,P6_3/mmc,0.0,True,True
mp-1724,Er2Fe17,"Er, Fe",2,0.023257761403510102,Hexagonal,194,P6_3/mmc,0.0,False,True
mp-1199288,Sr13Hg58,"Hg, Sr",2,0.03186516314298826,Hexagonal,194,P6_3/mmc,0.0032000000000000917,False,False
mp-1039217,MgCd2,"Cd, Mg",2,0.092279707222223,Hexagonal,194,P6_3/mmc,0.0,True,True
mp-20382,Ti6Sn5,"Sn, Ti",2,0.0,Hexagonal,194,P6_3/mmc,0.0,False,True
mp-2701,NbN,"N, Nb",2,0.04256885499999896,Hexagonal,194,P6_3/mmc,0.0,True,True
mp-12070,CuAs,"As, Cu",2,0.05318807624999877,Hexagonal,194,P6_3/mmc,0.0,True,True
mp-30494,ScCd3,"Cd, Sc",2,0.0,Hexagonal,194,P6_3/mmc,0.0,False,True
mp-570670,YOs2,"Os, Y",2,0.0,Hexagonal,194,P6_3/mmc,0.0,False,True
mp-1191413,YRh3,"Rh, Y",2,0.0,Hexagonal,194,P6_3/mmc,0.0,False,True
mp-1094309,Sr3Mg,"Mg, Sr",2,0.07363901499999992,Hexagonal,194,P6_3/mmc,0.0,True,True
mp-1186030,Na3Au,"Au, Na",2,0.0450940349999982,Hexagonal,194,P6_3/mmc,0.0,True,True
mp-1198632,Gd2Zn17,"Gd, Zn",2,0.005134800000000439,Hexagonal,194,P6_3/mmc,0.0,False,True
mp-13548,Cs2Pt,"Cs, Pt",2,0.0,Hexagonal,194,P6_3/mmc,1.6743000000000001,False,False
mp-570684,ZrOs2,"Os, Zr",2,0.0,Hexagonal,194,P6_3/mmc,0.0,False,True
mp-1187296,Tb3Mg,"Mg, Tb",2,0.054079071666666145,Hexagonal,194,P6_3/mmc,0.0,True,True
mp-1185974,MgPb3,"Mg, Pb",2,0.05420341624999869,Hexagonal,194,P6_3/mmc,0.0,True,True
mp-1095495,YZn2,"Y, Zn",2,0.0331424183333322,Hexagonal,194,P6_3/mmc,0.0,True,True
mp-8511,PF5,"F, P",2,0.0,Hexagonal,194,P6_3/mmc,7.1089,False,False
mp-864889,ZrZn3,"Zn, Zr",2,0.0,Hexagonal,194,P6_3/mmc,0.0,True,True
mp-1105856,NpPt3,"Np, Pt",2,0.0,Hexagonal,194,P6_3/mmc,0.0,False,True
mp-862665,AcGe3,"Ac, Ge",2,0.0,Hexagonal,194,P6_3/mmc,0.0,True,True
mp-862857,PaS3,"Pa, S",2,0.0,Hexagonal,194,P6_3/mmc,0.0,True,True
mp-1184302,ErTm3,"Er, Tm",2,0.0,Hexagonal,194,P6_3/mmc,0.0,True,True
mp-1202952,Tb2Al17,"Al, Tb",2,0.08342515473684209,Hexagonal,194,P6_3/mmc,0.0,False,True
mp-1188018,Zr3Al,"Al, Zr",2,0.01031160000000142,Hexagonal,194,P6_3/mmc,0.0,True,True
mp-1186521,Pm3Ho,"Ho, Pm",2,0.021060316874997653,Hexagonal,194,P6_3/mmc,0.0,True,True
mp-1186918,PuHf3,"Hf, Pu",2,0.08168190250000151,Hexagonal,194,P6_3/mmc,0.0,True,True
mp-1183654,Cd3Pt,"Cd, Pt",2,0.0020264037500012932,Hexagonal,194,P6_3/mmc,0.0,True,True
mp-977129,HgPd3,"Hg, Pd",2,0.028413377500001502,Hexagonal,194,P6_3/mmc,0.0,True,True
mp-1186676,PmY3,"Pm, Y",2,0.009372136874997494,Hexagonal,194,P6_3/mmc,0.0,True,True
mp-1186042,Na3Ca,"Ca, Na",2,0.07374214000000023,Hexagonal,194,P6_3/mmc,0.0,True,True
mp-1184017,Cu3As,"As, Cu",2,0.056309215624999354,Hexagonal,194,P6_3/mmc,0.0,True,True
mp-774873,NbS2,"Nb, S",2,0.05761998666666823,Hexagonal,194,P6_3/mmc,0.0,True,True
mp-867004,Th2Ni7,"Ni, Th",2,0.0,Hexagonal,194,P6_3/mmc,0.0,False,True
mp-570466,Li2Ca,"Ca, Li",2,0.0,Hexagonal,194,P6_3/mmc,0.0,False,True
mp-1190774,Ta6Ga5,"Ga, Ta",2,0.05531340279220842,Hexagonal,194,P6_3/mmc,0.0,False,True
mp-557720,CeF3,"Ce, F",2,0.027210783333334376,Hexagonal,194,P6_3/mmc,0.0,True,True
mp-1186088,Na3Tl,"Na, Tl",2,0.011267614062500542,Hexagonal,194,P6_3/mmc,0.0,True,True
mp-985540,Ac3La,"Ac, La",2,0.024142175625001983,Hexagonal,194,P6_3/mmc,0.0,True,True
mp-1079863,TiCo3,"Co, Ti",2,0.09143691124999975,Hexagonal,194,P6_3/mmc,0.0,True,True
mp-680401,U2Zn17,"U, Zn",2,0.0,Hexagonal,194,P6_3/mmc,0.0,False,True
mp-1201388,Tb13Zn58,"Tb, Zn",2,0.0,Hexagonal,194,P6_3/mmc,0.08689999999999998,False,False
mp-17023,UNi2,"Ni, U",2,0.020318664679490617,Hexagonal,194,P6_3/mmc,0.0,False,True
mp-11282,Be2W,"Be, W",2,0.0,Hexagonal,194,P6_3/mmc,0.0,False,True
mp-1196386,Ce2Co7,"Ce, Co",2,0.043435043611110835,Hexagonal,194,P6_3/mmc,0.0,False,True
mp-1186266,Nd3Dy,"Dy, Nd",2,0.025809973125003438,Hexagonal,194,P6_3/mmc,0.0,True,True
mp-1101968,HoTc2,"Ho, Tc",2,0.0,Hexagonal,194,P6_3/mmc,0.0,False,True
mp-1187741,VAu3,"Au, V",2,0.07125237874999613,Hexagonal,194,P6_3/mmc,0.0,True,True
mp-1094989,Ca3Mg,"Ca, Mg",2,0.0314536568749999,Hexagonal,194,P6_3/mmc,0.0,True,True
mp-1185970,Mn3Co,"Co, Mn",2,0.0,Hexagonal,194,P6_3/mmc,0.0,True,True
mp-1094431,Mg2Zn,"Mg, Zn",2,0.09092040653333355,Hexagonal,194,P6_3/mmc,0.0,True,True
mp-1186636,PmRh3,"Pm, Rh",2,0.017329375000002756,Hexagonal,194,P6_3/mmc,0.0,True,True
mp-867345,TcIr3,"Ir, Tc",2,0.0,Hexagonal,194,P6_3/mmc,0.0,True,True
mp-1185214,Li3Ni,"Li, Ni",2,0.09381227749999965,Hexagonal,194,P6_3/mmc,0.0,True,True
mp-972042,Zn3Cu,"Cu, Zn",2,0.0,Hexagonal,194,P6_3/mmc,0.0,True,True
mp-11482,MoIr3,"Ir, Mo",2,0.0,Hexagonal,194,P6_3/mmc,0.0,False,True
mp-972941,NaBi3,"Bi, Na",2,0.019397263750001947,Hexagonal,194,P6_3/mmc,0.0,True,True
mp-865496,VIr3,"Ir, V",2,0.0,Hexagonal,194,P6_3/mmc,0.0,True,True
mp-1186115,NaAu3,"Au, Na",2,0.09304184875000487,Hexagonal,194,P6_3/mmc,0.0,True,True
mp-8033,PuF3,"F, Pu",2,0.0,Hexagonal,194,P6_3/mmc,0.0,False,True
mp-984725,BaTl3,"Ba, Tl",2,0.0025864675000057957,Hexagonal,194,P6_3/mmc,0.0,True,True
mp-1186060,MnOs3,"Mn, Os",2,0.018094478879312703,Hexagonal,194,P6_3/mmc,0.0,True,True
mp-1094451,Mg3Zn,"Mg, Zn",2,0.026793507400000305,Hexagonal,194,P6_3/mmc,0.0,True,True
mp-30841,UPd3,"Pd, U",2,0.0,Hexagonal,194,P6_3/mmc,0.0,False,True
mp-862689,Cs3Rb,"Cs, Rb",2,0.058968352133620394,Hexagonal,194,P6_3/mmc,0.0,True,True
mp-12109,ZrRe2,"Re, Zr",2,0.0,Hexagonal,194,P6_3/mmc,0.0,False,True
mp-980109,SnAu3,"Au, Sn",2,0.06611329749999584,Hexagonal,194,P6_3/mmc,0.0,True,True
mp-15668,NaSe,"Na, Se",2,0.0,Hexagonal,194,P6_3/mmc,0.4942,False,False
mp-1187525,Ti3Si,"Si, Ti",2,0.05649983694444494,Hexagonal,194,P6_3/mmc,0.0,True,True
mp-1186984,ScBr3,"Br, Sc",2,0.0,Hexagonal,194,P6_3/mmc,2.2256,True,False
mp-30866,Rh3W,"Rh, W",2,0.0,Hexagonal,194,P6_3/mmc,0.0,False,True
mp-21068,CaIn2,"Ca, In",2,0.0,Hexagonal,194,P6_3/mmc,0.0,False,True
mp-975109,RbNa3,"Na, Rb",2,0.06631125584051722,Hexagonal,194,P6_3/mmc,0.0,True,True
mp-1184791,InRh3,"In, Rh",2,0.05737257875000168,Hexagonal,194,P6_3/mmc,0.0,True,True
mp-12553,PrAl3,"Al, Pr",2,0.0,Hexagonal,194,P6_3/mmc,0.0,False,True
mp-1072113,NbSe2,"Nb, Se",2,0.00015933666666612112,Hexagonal,194,P6_3/mmc,0.0,False,True
mp-559740,SiO2,"O, Si",2,0.05859891305555642,Hexagonal,194,P6_3/mmc,5.7101,True,False
mp-867352,TcRh3,"Rh, Tc",2,0.0,Hexagonal,194,P6_3/mmc,0.0,True,True
mp-1102767,CeMg2,"Ce, Mg",2,0.09601135972222252,Hexagonal,194,P6_3/mmc,0.0,False,True
mp-865301,TmBr3,"Br, Tm",2,0.0,Hexagonal,194,P6_3/mmc,2.9866,True,False
mp-862668,CeHg3,"Ce, Hg",2,0.0,Hexagonal,194,P6_3/mmc,0.0,False,True
mp-570786,KNa2,"K, Na",2,0.0029021212500008886,Hexagonal,194,P6_3/mmc,0.0,False,True
mp-786,MnSb,"Mn, Sb",2,0.0,Hexagonal,194,P6_3/mmc,0.0,False,True
mp-1187109,Sr3Ac,"Ac, Sr",2,0.09577036312499843,Hexagonal,194,P6_3/mmc,0.0,True,True
mp-1191108,SmRh3,"Rh, Sm",2,0.0,Hexagonal,194,P6_3/mmc,0.0,False,True
mp-864994,DyHg3,"Dy, Hg",2,0.0,Hexagonal,194,P6_3/mmc,0.0,False,True
mp-20686,Ho2In,"Ho, In",2,0.0,Hexagonal,194,P6_3/mmc,0.0,False,True
mp-7956,Na3Sb,"Na, Sb",2,0.0,Hexagonal,194,P6_3/mmc,0.39460000000000006,False,False
mp-1102895,TaZn2,"Ta, Zn",2,0.005104389583337365,Hexagonal,194,P6_3/mmc,0.0,False,True
mp-662,NiSe,"Ni, Se",2,0.07378876916666677,Hexagonal,194,P6_3/mmc,0.0,False,True
mp-1039262,CaZn3,"Ca, Zn",2,0.06413677166666565,Hexagonal,194,P6_3/mmc,0.0,True,True
mp-1005761,SmGd3,"Gd, Sm",2,0.0022224637499945743,Hexagonal,194,P6_3/mmc,0.0,True,True
mp-1184721,HfCo3,"Co, Hf",2,0.08204294954545688,Hexagonal,194,P6_3/mmc,0.0,True,True
mp-864934,MgAg3,"Ag, Mg",2,0.0,Hexagonal,194,P6_3/mmc,0.0,True,True
mp-13138,Cu3Sn,"Cu, Sn",2,0.03600903500000108,Hexagonal,194,P6_3/mmc,0.0,False,True
mp-1183863,CePm3,"Ce, Pm",2,0.09428174062500361,Hexagonal,194,P6_3/mmc,0.0,True,True
mp-1184475,Eu3Y,"Eu, Y",2,0.07105771208333067,Hexagonal,194,P6_3/mmc,0.0,True,True
mp-863035,PuSb3,"Pu, Sb",2,0.0,Hexagonal,194,P6_3/mmc,0.0,True,True
mp-863658,PmCl3,"Cl, Pm",2,0.0,Hexagonal,194,P6_3/mmc,3.5137,True,False
mp-1185205,Li3Hg,"Hg, Li",2,0.01553297749999949,Hexagonal,194,P6_3/mmc,0.0,True,True
mp-1181447,EuH2,"Eu, H",2,0.03531575833333456,Hexagonal,194,P6_3/mmc,0.0,True,True
mp-1184122,Dy3Al,"Al, Dy",2,0.019190565625002876,Hexagonal,194,P6_3/mmc,0.0,True,True
mp-1183960,Ca3Eu,"Ca, Eu",2,0.016993482499998436,Hexagonal,194,P6_3/mmc,0.0,True,True
mp-1187462,ThZr3,"Th, Zr",2,0.07877942750000244,Hexagonal,194,P6_3/mmc,0.0,True,True
mp-1196012,Y2Fe17,"Fe, Y",2,0.018991131052631616,Hexagonal,194,P6_3/mmc,0.0,False,True
mp-1019316,Tc2N,"N, Tc",2,0.0,Hexagonal,194,P6_3/mmc,0.0,True,True
mp-224,WS2,"S, W",2,0.0,Hexagonal,194,P6_3/mmc,1.2557,False,False
mp-1184779,HoEr3,"Er, Ho",2,0.017596299583331643,Hexagonal,194,P6_3/mmc,0.0,True,True
mp-980429,Sm3Hg,"Hg, Sm",2,0.0,Hexagonal,194,P6_3/mmc,0.0,True,True
mp-30489,La2Cd17,"Cd, La",2,0.02209769352941371,Hexagonal,194,P6_3/mmc,0.0,False,True
mp-1187847,YEr3,"Er, Y",2,0.024628425000003062,Hexagonal,194,P6_3/mmc,0.0,True,True
mp-570184,ThPd3,"Pd, Th",2,0.0,Hexagonal,194,P6_3/mmc,0.0,False,True
mp-1185099,KHg3,"Hg, K",2,0.010135949166659941,Hexagonal,194,P6_3/mmc,0.0,True,True
mp-1187290,SrEu3,"Eu, Sr",2,0.04755801124999692,Hexagonal,194,P6_3/mmc,0.0,True,True
mp-865045,MnRu3,"Mn, Ru",2,0.0,Hexagonal,194,P6_3/mmc,0.0,True,True
mp-1187318,Tb3Pr,"Pr, Tb",2,0.012096138333333784,Hexagonal,194,P6_3/mmc,0.0,True,True
mp-12659,Mn2Nb,"Mn, Nb",2,0.0,Hexagonal,194,P6_3/mmc,0.0,False,True
mp-864617,NdI3,"I, Nd",2,0.0,Hexagonal,194,P6_3/mmc,1.8067,True,False
mp-567590,LuOs2,"Lu, Os",2,0.0,Hexagonal,194,P6_3/mmc,0.0,False,True
mp-1006132,Hf3Pb,"Hf, Pb",2,0.03169717000000105,Hexagonal,194,P6_3/mmc,0.0,True,True
mp-865733,CoTc3,"Co, Tc",2,0.0,Hexagonal,194,P6_3/mmc,0.0,True,True
mp-554462,TiS,"S, Ti",2,0.06516763999999853,Hexagonal,194,P6_3/mmc,0.0,False,True
mp-866161,VRh3,"Rh, V",2,0.0,Hexagonal,194,P6_3/mmc,0.0,True,True
mp-30640,Tm2Fe17,"Fe, Tm",2,0.02512023877193137,Hexagonal,194,P6_3/mmc,0.0,False,True
mp-1102249,TbRe2,"Re, Tb",2,0.0,Hexagonal,194,P6_3/mmc,0.0,False,True
mp-1102649,TbMn2,"Mn, Tb",2,0.083220244712642,Hexagonal,194,P6_3/mmc,0.0,False,True
mp-867232,TbAl3,"Al, Tb",2,0.0,Hexagonal,194,P6_3/mmc,0.0,True,True
mp-16513,NdAl3,"Al, Nd",2,0.0,Hexagonal,194,P6_3/mmc,0.0,False,True
mp-1202657,Nd2Ni7,"Nd, Ni",2,0.0013199724999797269,Hexagonal,194,P6_3/mmc,0.0,False,True
mp-973465,Ho3In,"Ho, In",2,0.01565317124999943,Hexagonal,194,P6_3/mmc,0.0,True,True
mp-1184289,Ga3Hg,"Ga, Hg",2,0.08707534437500186,Hexagonal,194,P6_3/mmc,0.0,True,True
mp-976806,NiAu3,"Au, Ni",2,0.08884928249999291,Hexagonal,194,P6_3/mmc,0.0,True,True
mp-1184374,FeIr3,"Fe, Ir",2,0.02980818749999692,Hexagonal,194,P6_3/mmc,0.0,True,True
mp-1984,TaS2,"S, Ta",2,0.0009596616666645019,Hexagonal,194,P6_3/mmc,0.0,False,True
mp-1183604,CaEu3,"Ca, Eu",2,0.024413907499997833,Hexagonal,194,P6_3/mmc,0.0,True,True
mp-30880,Tb2Zn17,"Tb, Zn",2,0.0026880715789476817,Hexagonal,194,P6_3/mmc,0.0,False,True
mp-10009,GaTe,"Ga, Te",2,0.004359849583334352,Hexagonal,194,P6_3/mmc,0.7852999999999999,False,False
mp-2644,CoSb,"Co, Sb",2,0.059708563333330744,Hexagonal,194,P6_3/mmc,0.0,False,True
mp-1078610,EuGe3,"Eu, Ge",2,0.07937109916666785,Hexagonal,194,P6_3/mmc,0.0,False,True
mp-22469,InNi3,"In, Ni",2,0.05902754499999929,Hexagonal,194,P6_3/mmc,0.0,False,True
mp-861511,PuP3,"P, Pu",2,0.04900477583333185,Hexagonal,194,P6_3/mmc,0.0,True,True
mp-867288,TbHg3,"Hg, Tb",2,0.0,Hexagonal,194,P6_3/mmc,0.0,False,True
mp-975599,Pr3Er,"Er, Pr",2,0.04088620041666502,Hexagonal,194,P6_3/mmc,0.0,True,True
mp-1184450,GaPb3,"Ga, Pb",2,0.07881836187500113,Hexagonal,194,P6_3/mmc,0.0,True,True
mp-1187379,TbSm3,"Sm, Tb",2,0.011719880000001126,Hexagonal,194,P6_3/mmc,0.0,True,True
mp-196,Al5Co2,"Al, Co",2,0.0,Hexagonal,194,P6_3/mmc,0.0,False,True
mp-862853,PaP3,"P, Pa",2,0.07536859416666886,Hexagonal,194,P6_3/mmc,0.0,True,True