material_id,formula,elements,num_elements,energy_above_hull,crystal_system,spacegroup_number,spacegroup_symbol,band_gap,theoretical,is_metal
mp-684668,CaC2,"C, Ca",2,0.06851735666666592,Orthorhombic,58,Pnnm,2.8643,True,False
mp-2455,As2Os,"As, Os",2,0.0,Orthorhombic,58,Pnnm,0.6646999999999998,False,False
mp-1072956,MgF2,"F, Mg",2,0.0024727899999996694,Orthorhombic,58,Pnnm,6.8477,False,False
mp-849086,CuS2,"Cu, S",2,0.005219705173610478,Orthorhombic,58,Pnnm,0.0,False,True
mp-2695,Sb2Os,"Os, Sb",2,0.0,Orthorhombic,58,Pnnm,0.34470000000000134,False,False
mp-19880,FeTe2,"Fe, Te",2,0.0,Orthorhombic,58,Pnnm,0.07739999999999903,False,False
mp-2180,HfSb2,"Hf, Sb",2,0.0,Orthorhombic,58,Pnnm,0.0,False,True
mp-754874,Cr3O8,"Cr, O",2,0.05428384936363617,Orthorhombic,58,Pnnm,0.0,True,True
mp-985590,SiO2,"O, Si",2,0.009721104722222762,Orthorhombic,58,Pnnm,5.515899999999999,True,False
mp-20862,CoSe2,"Co, Se",2,0.0,Orthorhombic,58,Pnnm,0.0,False,True
mp-1543,Ge2Pt,"Ge, Pt",2,0.015904859166663954,Orthorhombic,58,Pnnm,0.0,False,True
mp-550172,SnO2,"O, Sn",2,0.0022508566666665786,Orthorhombic,58,Pnnm,0.8060999999999998,False,False
mp-9945,CoTe2,"Co, Te",2,0.0,Orthorhombic,58,Pnnm,0.0,False,True
mp-23214,CaCl2,"Ca, Cl",2,0.001145210833334076,Orthorhombic,58,Pnnm,5.3978,False,False
mp-567484,PtCl2,"Cl, Pt",2,0.04601806499999839,Orthorhombic,58,Pnnm,1.1359,False,False
mp-627397,In2Se,"In, Se",2,0.09499445958333297,Orthorhombic,58,Pnnm,0.0,False,True
mp-1101405,Rb2O,"O, Rb",2,0.016209781666666867,Orthorhombic,58,Pnnm,0.31279999999999997,True,False
mp-19795,InS,"In, S",2,0.0,Orthorhombic,58,Pnnm,1.3508000000000004,False,False
mp-27709,Bi6Br7,"Bi, Br",2,0.044985312500000596,Orthorhombic,58,Pnnm,1.4121000000000001,False,False
mp-20027,FeP2,"Fe, P",2,0.0,Orthorhombic,58,Pnnm,0.43270000000000053,False,False
mp-558025,SiO2,"O, Si",2,0.016457801296297703,Orthorhombic,58,Pnnm,5.671,False,False
mp-22888,CaBr2,"Br, Ca",2,0.0,Orthorhombic,58,Pnnm,4.5304,False,False
mp-1871,Fe2C,"C, Fe",2,0.05937499083333364,Orthorhombic,58,Pnnm,0.0,False,True
mp-2008,FeAs2,"As, Fe",2,0.0,Orthorhombic,58,Pnnm,0.2829999999999995,False,False
mp-1522,FeS2,"Fe, S",2,0.0,Orthorhombic,58,Pnnm,0.8770000000000007,False,False
mp-684583,CsO2,"Cs, O",2,0.04439095166666718,Orthorhombic,58,Pnnm,0.0,True,True
mp-19814,NiAs2,"As, Ni",2,0.0,Orthorhombic,58,Pnnm,0.0,False,True
mp-7424,BPd2,"B, Pd",2,0.0,Orthorhombic,58,Pnnm,0.0,False,True
mp-620032,Ti2Se,"Se, Ti",2,0.0,Orthorhombic,58,Pnnm,0.0,False,True
mp-22477,Ta2P,"P, Ta",2,0.0,Orthorhombic,58,Pnnm,0.0,False,True
mp-21859,CuAs2,"As, Cu",2,0.08453640666666828,Orthorhombic,58,Pnnm,0.0,False,True
mp-547074,VO2,"O, V",2,0.043842408333317096,Orthorhombic,58,Pnnm,0.0,False,True
mp-715550,MoO2,"Mo, O",2,0.0014738083333334373,Orthorhombic,58,Pnnm,0.0,True,True
mp-1197374,Zr2S,"S, Zr",2,0.0,Orthorhombic,58,Pnnm,0.0,False,True
mp-616559,Ti2S,"S, Ti",2,0.0,Orthorhombic,58,Pnnm,0.0,False,True
mp-22642,Zr2Se,"Se, Zr",2,0.0,Orthorhombic,58,Pnnm,0.0,False,True
mp-29642,ZrBi2,"Bi, Zr",2,0.0,Orthorhombic,58,Pnnm,0.0,False,True
mp-22857,CrCl2,"Cl, Cr",2,0.07023949000000052,Orthorhombic,58,Pnnm,0.7128999999999999,False,False
mp-22498,CrSb2,"Cr, Sb",2,0.0,Orthorhombic,58,Pnnm,0.0,False,True
mp-30751,Al13Co4,"Al, Co",2,0.010762535183824085,Orthorhombic,58,Pnnm,0.0,True,True
mp-760,FeSe2,"Fe, Se",2,0.0,Orthorhombic,58,Pnnm,0.3741000000000003,False,False
mp-616512,Y3Co2,"Co, Y",2,0.01083043350000068,Orthorhombic,58,Pnnm,0.0,False,True
mp-1018789,LiO2,"Li, O",2,0.08308098404761921,Orthorhombic,58,Pnnm,0.0,True,True
mp-1078278,CrB4,"B, Cr",2,0.0,Orthorhombic,58,Pnnm,0.0,False,True
mp-2319,P2Os,"Os, P",2,0.0,Orthorhombic,58,Pnnm,0.8902999999999999,False,False
mp-1018672,CoAs2,"As, Co",2,0.01968061083333339,Orthorhombic,58,Pnnm,0.0,False,True
mp-569017,PdI2,"I, Pd",2,0.019478943333334886,Orthorhombic,58,Pnnm,0.9488000000000001,False,False
mp-1072104,GeO2,"Ge, O",2,0.005788985555556181,Orthorhombic,58,Pnnm,1.3714999999999993,False,False
mp-1901,NaO2,"Na, O",2,0.0,Orthorhombic,58,Pnnm,0.0,False,True
mp-1192314,HfBi2,"Bi, Hf",2,0.0,Orthorhombic,58,Pnnm,0.0,False,True
mp-504659,Hf2P,"Hf, P",2,0.0,Orthorhombic,58,Pnnm,0.0,False,True
mp-542382,ThTl,"Th, Tl",2,0.0,Orthorhombic,57,Pbcm,0.0,False,True
mp-1209264,Sn17Os4,"Os, Sn",2,0.024728159404762806,Orthorhombic,57,Pbcm,0.0,True,True
mp-639662,CrF5,"Cr, F",2,0.0,Orthorhombic,57,Pbcm,1.2205999999999997,False,False
mp-1106232,PrAl,"Al, Pr",2,0.0033496450000001232,Orthorhombic,57,Pbcm,0.0,False,True
mp-433,DyAl,"Al, Dy",2,0.0,Orthorhombic,57,Pbcm,0.0,False,True
mp-566278,WO3,"O, W",2,0.006230879062499639,Orthorhombic,57,Pbcm,1.6008,True,False
mp-16721,TmAl,"Al, Tm",2,0.0,Orthorhombic,57,Pbcm,0.0,False,True
mp-672237,PbO,"O, Pb",2,0.0,Orthorhombic,57,Pbcm,1.537,True,False
mp-864637,NdAl,"Al, Nd",2,0.0,Orthorhombic,57,Pbcm,0.0,False,True
mp-505464,Cs2Te13,"Cs, Te",2,0.0,Orthorhombic,57,Pbcm,0.4802000000000004,False,False
mp-1106367,HgS4,"Hg, S",2,0.0,Orthorhombic,57,Pbcm,1.0474999999999999,False,False
mp-667371,SiO2,"O, Si",2,0.012009053630952948,Orthorhombic,57,Pbcm,5.6417,True,False
mp-16507,LuAl,"Al, Lu",2,0.0,Orthorhombic,57,Pbcm,0.0,False,True
mp-696805,H2S,"H, S",2,0.0,Orthorhombic,57,Pbcm,4.3246,False,False
mp-978951,SmAl,"Al, Sm",2,0.0,Orthorhombic,57,Pbcm,0.0,False,True
mp-30718,K5Hg7,"Hg, K",2,0.0,Orthorhombic,57,Pbcm,0.0,False,True
mp-1188420,HoAl,"Al, Ho",2,0.0,Orthorhombic,57,Pbcm,0.0,False,True
mp-22874,PBr5,"Br, P",2,0.0,Orthorhombic,57,Pbcm,1.6183,False,False
mp-11225,TbAl,"Al, Tb",2,0.0,Orthorhombic,57,Pbcm,0.0,False,True
mp-20141,Mn3O4,"Mn, O",2,0.05253724357142886,Orthorhombic,57,Pbcm,0.0,False,True
mp-720,TlF,"F, Tl",2,0.0,Orthorhombic,57,Pbcm,3.205,False,False
mp-2486616,WO3,"O, W",2,0.00014255843749921837,Orthorhombic,57,Pbcm,1.2614999999999998,True,False
mp-555935,Ta2S,"S, Ta",2,0.027611913499999474,Orthorhombic,57,Pbcm,0.0,False,True
mp-600070,SiO2,"O, Si",2,0.01740293218749933,Orthorhombic,57,Pbcm,5.8420000000000005,True,False
mp-1201920,CsSe4,"Cs, Se",2,0.0,Orthorhombic,57,Pbcm,0.9736,False,False
mp-1188739,ErAl,"Al, Er",2,0.0,Orthorhombic,57,Pbcm,0.0,False,True
mp-1201790,CsP7,"Cs, P",2,0.0,Orthorhombic,57,Pbcm,1.2774,False,False
mp-20878,PbO,"O, Pb",2,0.009288451250000662,Orthorhombic,57,Pbcm,2.1565,False,False
mp-510188,HfGa,"Ga, Hf",2,0.0,Orthorhombic,57,Pbcm,0.0,False,True
mp-1178531,BaO,"Ba, O",2,0.01994168078125025,Orthorhombic,57,Pbcm,2.2831,True,False
mp-650112,Fe3O4,"Fe, O",2,0.05936087017857261,Orthorhombic,57,Pbcm,0.9257000000000004,True,False
mp-553964,WO3,"O, W",2,0.007485819687499173,Orthorhombic,57,Pbcm,1.2556,True,False
mp-1044534,W3O7,"O, W",2,0.09886540562500024,Orthorhombic,59,Pmmn,0.0,True,True
mp-23264,TiI3,"I, Ti",2,0.0,Orthorhombic,59,Pmmn,0.13039999999999985,False,False
mp-568753,TcBr3,"Br, Tc",2,0.03668428460937179,Orthorhombic,59,Pmmn,0.13400000000000012,True,False
mp-1079467,YAu3,"Au, Y",2,0.0,Orthorhombic,59,Pmmn,0.0,False,True
mp-1444738,CsI,"Cs, I",2,0.011447242499997401,Orthorhombic,59,Pmmn,3.8796999999999997,True,False
mp-1025526,LuAu3,"Au, Lu",2,0.0,Orthorhombic,59,Pmmn,0.0,False,True
mp-569683,InAu3,"Au, In",2,0.00018088363636081795,Orthorhombic,59,Pmmn,0.0,False,True
mp-1080147,Ni3Sn,"Ni, Sn",2,0.007484161249999843,Orthorhombic,59,Pmmn,0.0,False,True
mp-600022,SiO2,"O, Si",2,0.016122072499999973,Orthorhombic,59,Pmmn,5.5985,True,False
mp-29777,Er2Ge5,"Er, Ge",2,0.003400170238096578,Orthorhombic,59,Pmmn,0.0,False,True
mp-1038788,CeMg,"Ce, Mg",2,0.05523189333333178,Orthorhombic,59,Pmmn,0.0,True,True
mp-1392387,Ta2O5,"O, Ta",2,0.001108651428573637,Orthorhombic,59,Pmmn,2.4063000000000003,True,False
mp-999192,SiNi,"Ni, Si",2,0.06185977125000086,Orthorhombic,59,Pmmn,0.0,False,True
mp-568247,TmAu3,"Au, Tm",2,0.0,Orthorhombic,59,Pmmn,0.0,False,True
mp-1094736,MgSn,"Mg, Sn",2,0.07277863874999912,Orthorhombic,59,Pmmn,0.0,True,True
mp-570188,ZrI3,"I, Zr",2,0.0,Orthorhombic,59,Pmmn,0.1623000000000001,True,False
mp-11506,Ni3Mo,"Mo, Ni",2,0.0,Orthorhombic,59,Pmmn,0.0,False,True
mp-30850,TaPt3,"Pt, Ta",2,0.00030014937500055794,Orthorhombic,59,Pmmn,0.0,False,True
mp-891,TaNi3,"Ni, Ta",2,0.0036788531250024903,Orthorhombic,59,Pmmn,0.0,False,True
mp-1094729,MgGa,"Ga, Mg",2,0.06914679750000019,Orthorhombic,59,Pmmn,0.0,True,True
mp-600053,SiO2,"O, Si",2,0.02291211460317477,Orthorhombic,59,Pmmn,5.522,True,False
mp-1191959,Nd2Ge9,"Ge, Nd",2,0.05316865136363447,Orthorhombic,59,Pmmn,0.0,False,True
mp-30386,HoAu3,"Au, Ho",2,0.0,Orthorhombic,59,Pmmn,0.0,False,True
mp-1451,NbNi3,"Nb, Ni",2,0.0,Orthorhombic,59,Pmmn,0.0,False,True
mp-1080348,CeSe2,"Ce, Se",2,0.013702038333331501,Orthorhombic,59,Pmmn,0.7385999999999999,True,False
mp-33112,Sc2H5,"H, Sc",2,0.06420273857142789,Orthorhombic,59,Pmmn,0.0,True,True
mp-16240,Ag3Sb,"Ag, Sb",2,0.041008395000002196,Orthorhombic,59,Pmmn,0.0,False,True
mp-1185694,MgBi,"Bi, Mg",2,0.06687393999999758,Orthorhombic,59,Pmmn,0.0,True,True
mp-982376,SrHg3,"Hg, Sr",2,0.014179460000001143,Orthorhombic,59,Pmmn,0.0,True,True
mp-1078699,NbPt3,"Nb, Pt",2,0.0015461556250002673,Orthorhombic,59,Pmmn,0.0,False,True
mp-581786,Cu3Sn,"Cu, Sn",2,0.03349821875000103,Orthorhombic,59,Pmmn,0.0,False,True
mp-25279,V2O5,"O, V",2,0.0,Orthorhombic,59,Pmmn,2.2826000000000004,False,False
mp-1080756,ErAu3,"Au, Er",2,0.0,Orthorhombic,59,Pmmn,0.0,False,True
mp-30417,SmAu3,"Au, Sm",2,0.0,Orthorhombic,59,Pmmn,0.0,False,True
mp-1245680,Cu3As,"As, Cu",2,0.05813082812499992,Orthorhombic,59,Pmmn,0.0,True,True
mp-1094267,Zr3Sn,"Sn, Zr",2,0.04238460999999916,Orthorhombic,59,Pmmn,0.0,True,True
mp-1189619,EuAl,"Al, Eu",2,0.0,Orthorhombic,59,Pmmn,0.0,False,True
mp-1232890,CrN,"Cr, N",2,0.02251165500000063,Orthorhombic,59,Pmmn,0.0,True,True
mp-23312,MoBr3,"Br, Mo",2,0.0,Orthorhombic,59,Pmmn,0.0,True,True
mp-1094383,MgTi,"Mg, Ti",2,0.07985887708333284,Orthorhombic,59,Pmmn,0.0,True,True
mp-1412716,Mo2O5,"Mo, O",2,0.07955826984693815,Orthorhombic,59,Pmmn,0.7552000000000003,True,False
mp-1232659,MnO,"Mn, O",2,0.0,Orthorhombic,59,Pmmn,1.3104999999999993,True,False
mp-19724,Cu3Ge,"Cu, Ge",2,0.01263984624999992,Orthorhombic,59,Pmmn,0.0,False,True
mp-1077,B2Ru,"B, Ru",2,0.0,Orthorhombic,59,Pmmn,0.0,False,True
mp-568064,Dy2Sn5,"Dy, Sn",2,0.01735043514285728,Orthorhombic,59,Pmmn,0.0,False,True
mp-12802,AlCu3,"Al, Cu",2,0.0,Orthorhombic,59,Pmmn,0.0,False,True
mp-20900,Cu3Sb,"Cu, Sb",2,0.06300208625000003,Orthorhombic,59,Pmmn,0.0,False,True
mp-1079681,ZrAu3,"Au, Zr",2,0.0,Orthorhombic,59,Pmmn,0.0,False,True
mp-600083,SiO2,"O, Si",2,0.014651049055554921,Orthorhombic,59,Pmmn,5.5983,True,False
mp-1044574,SbO2,"O, Sb",2,0.09066571708332205,Orthorhombic,59,Pmmn,2.2971,True,False
mp-1039164,MgCd,"Cd, Mg",2,0.04556646250000007,Orthorhombic,59,Pmmn,0.0,True,True
mp-12546,TiCu3,"Cu, Ti",2,0.005902016874999916,Orthorhombic,59,Pmmn,0.0,False,True
mp-754670,V2O5,"O, V",2,0.009122270000000654,Orthorhombic,59,Pmmn,2.4105,False,False
mp-561351,SiO2,"O, Si",2,0.017940285000001666,Orthorhombic,59,Pmmn,5.5568,False,False
mp-669692,NbPd3,"Nb, Pd",2,0.0,Orthorhombic,59,Pmmn,0.0,False,True
mp-30106,AsCl5,"As, Cl",2,0.017589918333332122,Orthorhombic,59,Pmmn,1.4376,False,False
mp-1402032,Sb2O5,"O, Sb",2,0.0483109071428558,Orthorhombic,59,Pmmn,0.0,True,True
mp-672371,Ni3Sb,"Ni, Sb",2,0.031380285000000896,Orthorhombic,59,Pmmn,0.0,False,True
mp-23294,RuBr3,"Br, Ru",2,0.0004180406250000601,Orthorhombic,59,Pmmn,0.0,False,True
mp-1094715,MgSb,"Mg, Sb",2,0.09610265354166714,Orthorhombic,59,Pmmn,0.0,True,True
mp-1078801,CsI,"Cs, I",2,0.011094708749997295,Orthorhombic,59,Pmmn,3.8727,True,False
mp-2850,B2Os,"B, Os",2,0.0,Orthorhombic,59,Pmmn,0.0,False,True
mp-570880,RuCl3,"Cl, Ru",2,0.0005663418750003757,Orthorhombic,59,Pmmn,0.0,True,True
mp-1079337,FeNi3,"Fe, Ni",2,0.035294448750001095,Orthorhombic,59,Pmmn,0.0,True,True
mp-1392923,W2O5,"O, W",2,0.07630401803571374,Orthorhombic,59,Pmmn,0.0,True,True
mp-1025478,TbAu3,"Au, Tb",2,0.0,Orthorhombic,59,Pmmn,0.0,False,True
mp-611,Ag3Sn,"Ag, Sn",2,0.013177481250000511,Orthorhombic,59,Pmmn,0.0,False,True
mp-1105178,Er2Sn5,"Er, Sn",2,0.0043682430952349804,Orthorhombic,59,Pmmn,0.0,False,True
mp-1080590,DyAu3,"Au, Dy",2,0.0,Orthorhombic,59,Pmmn,0.0,False,True
mp-1539317,Ta2O5,"O, Ta",2,0.0,Orthorhombic,59,Pmmn,2.3196,True,False
mp-1079296,HfAu3,"Au, Hf",2,0.0,Orthorhombic,59,Pmmn,0.0,False,True
mp-20826,CuTe,"Cu, Te",2,0.0,Orthorhombic,59,Pmmn,0.0,False,True
mp-1220520,Nd4Rh,"Nd, Rh",2,0.020122422833332543,Monoclinic,6,Pm,0.0,True,True
mp-1220003,PPd4,"P, Pd",2,0.018822586000002417,Monoclinic,6,Pm,0.0,True,True
mp-1218312,Ta2O5,"O, Ta",2,0.038417212012987534,Monoclinic,6,Pm,2.1578999999999997,True,False
mp-1217445,Ti5S8,"S, Ti",2,0.03161744051282156,Monoclinic,6,Pm,0.0,True,True
mp-1361615,Ba5Ga6,"Ba, Ga",2,0.0,Monoclinic,6,Pm,0.05069999999999997,True,False
mp-1247914,Al2O3,"Al, O",2,0.09287780000000012,Monoclinic,6,Pm,3.9999000000000002,True,False
mp-684923,Cu25Se26,"Cu, Se",2,0.0013571253594761856,Monoclinic,6,Pm,0.0,True,True
mp-1228652,B8O,"B, O",2,0.020614433888888506,Monoclinic,6,Pm,2.3696,True,False
mp-2526683,WO3,"O, W",2,0.04266914316964332,Monoclinic,6,Pm,2.6601,True,False
mp-27413,Mo8P5,"Mo, P",2,0.03141892884615416,Monoclinic,6,Pm,0.0,False,True
mp-1226103,Co4B,"B, Co",2,0.05670506599999925,Monoclinic,6,Pm,0.0,True,True
mp-1217637,Tb4Si7,"Si, Tb",2,0.03349877090908748,Monoclinic,6,Pm,0.0,True,True
mp-1217163,Ti5S8,"S, Ti",2,0.03724132923076873,Monoclinic,6,Pm,0.0,True,True
mp-1221030,Ni4Sn3,"Ni, Sn",2,0.0,Monoclinic,6,Pm,0.0,True,True
mp-1105681,In2O3,"In, O",2,0.037840163749999434,Orthorhombic,60,Pbcn,0.7626999999999997,False,False
mp-560203,SiO2,"O, Si",2,0.029665876944445557,Orthorhombic,60,Pbcn,5.4814,True,False
mp-639748,SiO2,"O, Si",2,0.031616067870368525,Orthorhombic,60,Pbcn,6.1775,True,False
mp-28353,NaTe,"Na, Te",2,0.004674205624999317,Orthorhombic,60,Pbcn,0.7888000000000002,False,False
mp-542233,Rb3As11,"As, Rb",2,0.0,Orthorhombic,60,Pbcn,1.4693,False,False
mp-1193639,Np2Se5,"Np, Se",2,0.009746093571428638,Orthorhombic,60,Pbcn,0.0,False,True
mp-9981,Mn2N,"Mn, N",2,0.0,Orthorhombic,60,Pbcn,0.0,False,True
mp-22192,Si3Ru2,"Ru, Si",2,0.0,Orthorhombic,60,Pbcn,0.5510999999999999,False,False
mp-850068,NiS2,"Ni, S",2,0.0968874108333333,Orthorhombic,60,Pbcn,0.0,True,True
mp-1568,K3P11,"K, P",2,0.0,Orthorhombic,60,Pbcn,1.93,False,False
mp-773920,Cr5O12,"Cr, O",2,0.0,Orthorhombic,60,Pbcn,1.7946999999999997,True,False
mp-510417,WO3,"O, W",2,0.007021600937500594,Orthorhombic,60,Pbcn,1.3564,True,False
mp-1172828,WO3,"O, W",2,0.007600772187499771,Orthorhombic,60,Pbcn,1.4645,False,False
mp-16610,Ge3Os2,"Ge, Os",2,0.0,Orthorhombic,60,Pbcn,0.7418000000000005,False,False
mp-1188655,Ir2S3,"Ir, S",2,0.0,Orthorhombic,60,Pbcn,0.7821000000000007,False,False
mp-473,Na3P11,"Na, P",2,0.0,Orthorhombic,60,Pbcn,1.8326000000000002,False,False
mp-1190124,Bi2O3,"Bi, O",2,0.013384078999997051,Orthorhombic,60,Pbcn,1.7487000000000004,True,False
mp-21476,Fe2N,"Fe, N",2,0.056840972499999864,Orthorhombic,60,Pbcn,0.0,False,True
mp-1938,Al2O3,"Al, O",2,0.09335591350000083,Orthorhombic,60,Pbcn,5.313199999999999,False,False
mp-1102412,CrO2,"Cr, O",2,0.03624988083331537,Orthorhombic,60,Pbcn,0.27429999999999977,True,False
mp-776097,HfO2,"Hf, O",2,0.039298047777780454,Orthorhombic,60,Pbcn,4.1383,True,False
mp-2034,W2C,"C, W",2,0.0654497191666703,Orthorhombic,60,Pbcn,0.0,False,True
mp-13869,Cr5O12,"Cr, O",2,0.025175022647058398,Orthorhombic,60,Pbcn,1.3909,False,False
mp-1190478,PbAu2,"Au, Pb",2,0.0,Orthorhombic,60,Pbcn,0.0,False,True
mp-20633,PbO2,"O, Pb",2,0.0015283774999979016,Orthorhombic,60,Pbcn,0.0,False,True
mp-1194185,U2S5,"S, U",2,0.012290060119052981,Orthorhombic,60,Pbcn,0.0,False,True
mp-556034,CO2,"C, O",2,0.010511642499999141,Orthorhombic,60,Pbcn,6.676,False,False
mp-21945,Ge3Ru2,"Ge, Ru",2,0.0,Orthorhombic,60,Pbcn,0.3814000000000002,False,False
mp-16608,Si3Os2,"Os, Si",2,0.0,Orthorhombic,60,Pbcn,0.8552999999999997,False,False
mp-555487,SnO2,"O, Sn",2,0.011379991388887234,Orthorhombic,60,Pbcn,0.8470999999999993,False,False
mp-17173,Rh2S3,"Rh, S",2,0.0011571454999987907,Orthorhombic,60,Pbcn,0.19179999999999975,False,False
mp-12978,SnO2,"O, Sn",2,0.01697146833333285,Orthorhombic,60,Pbcn,0.9607000000000001,True,False
mp-1666,Th2S5,"S, Th",2,0.0,Orthorhombic,60,Pbcn,1.7512999999999996,False,False
mp-19342,WO3,"O, W",2,0.006192068437499643,Orthorhombic,60,Pbcn,1.2772,True,False
mp-1105666,Rh2Se3,"Rh, Se",2,0.0,Orthorhombic,60,Pbcn,0.0,False,True
mp-23711,MgH2,"H, Mg",2,0.0018755891666670799,Orthorhombic,60,Pbcn,3.6284,False,False
mp-1195045,WI4,"I, W",2,0.0,Orthorhombic,60,Pbcn,1.0716,False,False
mp-2383161,WO3,"O, W",2,0.0,Orthorhombic,60,Pbcn,1.3529,True,False
mp-1439,TiO2,"O, Ti",2,0.004523600833332253,Orthorhombic,60,Pbcn,2.5281,False,False
mp-1552,Mo2C,"C, Mo",2,0.0,Orthorhombic,60,Pbcn,0.0,False,True
mp-775980,ZrO2,"O, Zr",2,0.06270777555555362,Orthorhombic,60,Pbcn,3.5759999999999996,True,False
mp-1197062,Rb3P11,"P, Rb",2,0.0,Orthorhombic,60,Pbcn,1.9328,False,False
mp-571642,CaCl2,"Ca, Cl",2,0.0,Orthorhombic,60,Pbcn,5.5987,False,False
mp-568293,Ca3N2,"Ca, N",2,0.031375908249998474,Orthorhombic,60,Pbcn,1.2985999999999995,True,False
mp-755749,Cr2O3,"Cr, O",2,0.03828968850000081,Orthorhombic,60,Pbcn,2.3438,True,False
mp-541000,K3As11,"As, K",2,0.0,Orthorhombic,60,Pbcn,1.4670999999999998,False,False
mp-20648,V2C,"C, V",2,0.0,Orthorhombic,60,Pbcn,0.0,False,True
mp-10913,GeO2,"Ge, O",2,0.0361803725000005,Orthorhombic,60,Pbcn,1.5228000000000002,False,False
mp-1716,Rh2O3,"O, Rh",2,0.0,Orthorhombic,60,Pbcn,0.5597000000000003,False,False
mp-775938,TiO2,"O, Ti",2,0.012246891111111324,Orthorhombic,60,Pbcn,2.0838999999999994,True,False
mp-7709,ZnF2,"F, Zn",2,0.0023652708333337102,Orthorhombic,60,Pbcn,3.5604,False,False
mp-1209834,Np2S5,"Np, S",2,0.0,Orthorhombic,60,Pbcn,0.0,True,True
mp-7228,ReO2,"O, Re",2,0.002089776944446342,Orthorhombic,60,Pbcn,0.0,False,True
mp-776402,B10H13,"B, H",2,0.006570894966031915,Orthorhombic,61,Pbca,3.206,False,False
mp-680329,K3As7,"As, K",2,0.0,Orthorhombic,61,Pbca,1.3032000000000001,False,False
mp-7373,CdAs,"As, Cd",2,0.015634253046873603,Orthorhombic,61,Pbca,0.09189999999999987,False,False
mp-1190186,ZrO2,"O, Zr",2,0.013256612916665134,Orthorhombic,61,Pbca,3.5793999999999997,False,False
mp-1203061,TcF4,"F, Tc",2,0.0,Orthorhombic,61,Pbca,1.3061,True,False
mp-583070,Re2Te5,"Re, Te",2,0.0,Orthorhombic,61,Pbca,0.6052999999999997,False,False
mp-1172875,Mn2O3,"Mn, O",2,0.0,Orthorhombic,61,Pbca,0.07210000000000027,False,False
mp-568441,MgH2,"H, Mg",2,0.04591761333333322,Orthorhombic,61,Pbca,2.0719999999999996,False,False
mp-2125,TeO2,"O, Te",2,0.00035735458333086,Orthorhombic,61,Pbca,2.2279000000000004,False,False
mp-27780,TcCl4,"Cl, Tc",2,0.0,Orthorhombic,61,Pbca,0.7828999999999999,False,False
mp-1006226,ZnBi,"Bi, Zn",2,0.08188305625000014,Orthorhombic,61,Pbca,0.0,True,True
mp-776427,ZrO2,"O, Zr",2,0.060921093333330845,Orthorhombic,61,Pbca,3.3334,True,False
mp-1080301,CeSe2,"Ce, Se",2,0.04455656499999883,Orthorhombic,61,Pbca,0.6132,True,False
mp-1840,TiO2,"O, Ti",2,0.0030413275000000795,Orthorhombic,61,Pbca,2.2862,False,False
mp-775757,HfO2,"Hf, O",2,0.009928638750000829,Orthorhombic,61,Pbca,4.016500000000001,True,False
mp-776975,NbO2,"Nb, O",2,0.07206724749999971,Orthorhombic,61,Pbca,0.0,True,True
mp-780654,V2O3,"O, V",2,0.030721300500001547,Orthorhombic,61,Pbca,0.41999999999999993,True,False
mp-570799,EuI2,"Eu, I",2,0.011422048333329826,Orthorhombic,61,Pbca,1.4536999999999995,False,False
mp-30369,Ca7Au3,"Au, Ca",2,0.003460915974997647,Orthorhombic,61,Pbca,0.0,False,True
mp-1194571,In2O3,"In, O",2,0.031132223500002,Orthorhombic,61,Pbca,0.8990999999999998,False,False
mp-1198787,BaO6,"Ba, O",2,0.04351491035714172,Orthorhombic,61,Pbca,0.0,False,True
mp-27485,Tc2O7,"O, Tc",2,0.0,Orthorhombic,61,Pbca,2.6664,False,False
mp-7372,ZnAs,"As, Zn",2,0.019185738632812033,Orthorhombic,61,Pbca,0.2952999999999997,False,False
mp-1080853,CeSe2,"Ce, Se",2,0.0845354454166678,Orthorhombic,61,Pbca,0.5249999999999995,True,False
mp-565203,Mn2O3,"Mn, O",2,0.00016063450000025625,Orthorhombic,61,Pbca,0.0,True,True