material_id,formula,elements,num_elements,energy_above_hull,crystal_system,spacegroup_number,spacegroup_symbol,band_gap,theoretical,is_metal,electronegativity_difference,atomic_concentrations
mp-2369,SnPd,"Pd, Sn",2,0.0,Orthorhombic,62,Pnma,0.0,False,True,0.1200,Sn: 0.5000; Pd: 0.5000
mp-1103395,La2Au,"Au, La",2,0.0,Orthorhombic,62,Pnma,0.0,False,True,0.6788,La: 0.6667; Au: 0.3333
mp-1078920,LaCu,"Cu, La",2,0.0,Orthorhombic,62,Pnma,0.0,False,True,0.4000,La: 0.5000; Cu: 0.5000
mp-31394,Ca7Sn6,"Ca, Sn",2,0.011303027045454161,Orthorhombic,62,Pnma,0.0,False,True,0.4786,Ca: 0.5385; Sn: 0.4615
mp-1203353,Sr5Pb4,"Pb, Sr",2,0.03281491694444583,Orthorhombic,62,Pnma,0.0,False,True,0.6857,Sr: 0.5556; Pb: 0.4444
mp-1197242,Sr5Bi3,"Bi, Sr",2,0.0,Orthorhombic,62,Pnma,0.0,False,True,0.5180,Sr: 0.6250; Bi: 0.3750
mp-1106061,Ca3Pd,"Ca, Pd",2,0.0027539912499996433,Orthorhombic,62,Pnma,0.0,False,True,0.5196,Ca: 0.7500; Pd: 0.2500
mp-636256,LaCu6,"Cu, La",2,0.0004356725892868951,Orthorhombic,62,Pnma,0.0,False,True,0.2799,La: 0.1429; Cu: 0.8571
mp-1207780,Y3Rh,"Rh, Y",2,0.0,Orthorhombic,62,Pnma,0.0,False,True,0.4590,Y: 0.7500; Rh: 0.2500
mp-12614,Ca2Cu,"Ca, Cu",2,0.0,Orthorhombic,62,Pnma,0.0,False,True,0.4243,Ca: 0.6667; Cu: 0.3333
mp-11230,Y2Al,"Al, Y",2,0.0,Orthorhombic,62,Pnma,0.0,False,True,0.1838,Y: 0.6667; Al: 0.3333
mp-1102640,MnPd2,"Mn, Pd",2,0.0,Orthorhombic,62,Pnma,0.0,False,True,0.3064,Mn: 0.3333; Pd: 0.6667
mp-1189592,La3Ru,"La, Ru",2,0.00323984125000365,Orthorhombic,62,Pnma,0.0,False,True,0.4763,La: 0.7500; Ru: 0.2500
mp-11550,Sc2Pt,"Pt, Sc",2,0.0,Orthorhombic,62,Pnma,0.0,False,True,0.4337,Sc: 0.6667; Pt: 0.3333
mp-1105522,CoBi3,"Bi, Co",2,0.016537787499999013,Orthorhombic,62,Pnma,0.0,False,True,0.0606,Co: 0.2500; Bi: 0.7500
mp-2824,AlPd2,"Al, Pd",2,0.0,Orthorhombic,62,Pnma,0.0,False,True,0.2781,Al: 0.3333; Pd: 0.6667
mp-1203966,SrHg8,"Hg, Sr",2,0.028153434920633047,Orthorhombic,62,Pnma,0.0,False,True,0.3300,Sr: 0.1111; Hg: 0.8889
mp-1105633,Y3Ni,"Ni, Y",2,0.0,Orthorhombic,62,Pnma,0.0,False,True,0.2988,Y: 0.7500; Ni: 0.2500
mp-1025399,LaAu,"Au, La",2,0.002857545000004791,Orthorhombic,62,Pnma,0.0,False,True,0.7200,La: 0.5000; Au: 0.5000
mp-1103028,Ba2Pd,"Ba, Pd",2,0.001974802499999484,Orthorhombic,62,Pnma,0.0,False,True,0.6175,Ba: 0.6667; Pd: 0.3333
mp-640095,La3Co,"Co, La",2,0.0,Orthorhombic,62,Pnma,0.0,False,True,0.3377,La: 0.7500; Co: 0.2500
mp-600428,Mn3Sn2,"Mn, Sn",2,0.07212195174137648,Orthorhombic,62,Pnma,0.0,False,True,0.2009,Mn: 0.6000; Sn: 0.4000
mp-16526,AlPt2,"Al, Pt",2,0.0022047591666662925,Orthorhombic,62,Pnma,0.0,False,True,0.3158,Al: 0.3333; Pt: 0.6667
mp-22646,InPd2,"In, Pd",2,0.0,Orthorhombic,62,Pnma,0.0,False,True,0.1980,In: 0.3333; Pd: 0.6667
mp-636334,SnRh2,"Rh, Sn",2,0.0,Orthorhombic,62,Pnma,0.0,False,True,0.1508,Sn: 0.3333; Rh: 0.6667
mp-1199503,Y3In5,"In, Y",2,0.06455999499999976,Orthorhombic,62,Pnma,0.0,False,True,0.2711,Y: 0.3750; In: 0.6250
mp-30843,Sr7Pt3,"Pt, Sr",2,0.0,Orthorhombic,62,Pnma,0.0,False,True,0.6095,Sr: 0.7000; Pt: 0.3000
mp-30379,GaAu,"Au, Ga",2,0.0,Orthorhombic,62,Pnma,0.0,False,True,0.3650,Ga: 0.5000; Au: 0.5000
mp-607138,Sc5Bi3,"Bi, Sc",2,0.0,Orthorhombic,62,Pnma,0.0,False,True,0.3195,Sc: 0.6250; Bi: 0.3750
mp-622209,Al3Ni,"Al, Ni",2,0.0,Orthorhombic,62,Pnma,0.0,False,True,0.1299,Al: 0.7500; Ni: 0.2500
mp-581990,Bi3Rh,"Bi, Rh",2,0.018761169791666532,Orthorhombic,62,Pnma,0.0,False,True,0.1126,Bi: 0.7500; Rh: 0.2500
mp-30719,Mg2Hg,"Hg, Mg",2,0.002498592500000285,Orthorhombic,62,Pnma,0.0,False,True,0.3253,Mg: 0.6667; Hg: 0.3333
mp-624187,Y5Bi3,"Bi, Y",2,0.0,Orthorhombic,62,Pnma,0.0,False,True,0.3873,Y: 0.6250; Bi: 0.3750
mp-570775,BaAu,"Au, Ba",2,0.0,Orthorhombic,62,Pnma,0.0,False,True,0.8250,Ba: 0.5000; Au: 0.5000
mp-20669,Ca2In,"Ca, In",2,0.0003651354999991696,Orthorhombic,62,Pnma,0.0,False,True,0.3677,Ca: 0.6667; In: 0.3333
mp-7343,Y3Pt,"Pt, Y",2,0.0,Orthorhombic,62,Pnma,0.0,False,True,0.4590,Y: 0.7500; Pt: 0.2500
mp-1102396,Ba2In,"Ba, In",2,0.0007876921666705172,Orthorhombic,62,Pnma,0.0,False,True,0.4196,Ba: 0.6667; In: 0.3333
mp-568716,SrAg,"Ag, Sr",2,0.0,Orthorhombic,62,Pnma,0.0,False,True,0.4900,Sr: 0.5000; Ag: 0.5000
mp-1189497,La3Ni,"La, Ni",2,0.0036061577083312812,Orthorhombic,62,Pnma,0.0,False,True,0.3507,La: 0.7500; Ni: 0.2500
mp-1189701,SrHg3,"Hg, Sr",2,0.031222650624999293,Orthorhombic,62,Pnma,0.0,False,True,0.4547,Sr: 0.2500; Hg: 0.7500
mp-7353,Hf3Cu8,"Cu, Hf",2,0.0,Orthorhombic,62,Pnma,0.0,False,True,0.2672,Hf: 0.2727; Cu: 0.7273
mp-27145,Ca5Bi3,"Bi, Ca",2,0.0,Orthorhombic,62,Pnma,0.0,False,True,0.4938,Ca: 0.6250; Bi: 0.3750
mp-30478,Ca2Pb,"Ca, Pb",2,0.0,Orthorhombic,62,Pnma,0.0,False,True,0.6270,Ca: 0.6667; Pb: 0.3333
mp-1197877,La5Rh4,"La, Rh",2,0.018963846666667727,Orthorhombic,62,Pnma,0.0,False,True,0.5863,La: 0.5556; Rh: 0.4444
mp-1207781,Y3Ru,"Ru, Y",2,0.0,Orthorhombic,62,Pnma,0.0,False,True,0.4244,Y: 0.7500; Ru: 0.2500
mp-30828,Sr2Pb,"Pb, Sr",2,0.0,Orthorhombic,62,Pnma,0.0,False,True,0.6505,Sr: 0.6667; Pb: 0.3333
mp-405,Ga2Pd5,"Ga, Pd",2,0.0,Orthorhombic,62,Pnma,0.0,False,True,0.1762,Ga: 0.2857; Pd: 0.7143
mp-30366,Ca3Au,"Au, Ca",2,0.0,Orthorhombic,62,Pnma,0.0,False,True,0.6668,Ca: 0.7500; Au: 0.2500
mp-30411,Mn9Au31,"Au, Mn",2,0.023309926125001823,Tetragonal,83,P4/m,0.0,False,True,0.4134,Mn: 0.2250; Au: 0.7750
mp-30673,Ti2Ga3,"Ga, Ti",2,0.0,Tetragonal,83,P4/m,0.0,False,True,0.1323,Ti: 0.4000; Ga: 0.6000
mp-1178773,YFe2,"Fe, Y",2,0.0020466146666660023,Tetragonal,82,I-4,0.0,False,True,0.2876,Y: 0.3333; Fe: 0.6667
mp-30594,Cu4Pd,"Cu, Pd",2,0.015894708357143017,Tetragonal,84,P4_2/m,0.0,False,True,0.1200,Cu: 0.8000; Pd: 0.2000
mp-30180,Al4Mo,"Al, Mo",2,0.022488266833331494,Monoclinic,8,Cm,0.0,False,True,0.2200,Al: 0.8000; Mo: 0.2000
mp-1080022,ZrCu,"Cu, Zr",2,0.02250555298077117,Monoclinic,8,Cm,0.0,False,True,0.2850,Zr: 0.5000; Cu: 0.5000
mp-1104047,Al4Tc,"Al, Tc",2,0.0,Monoclinic,8,Cm,0.0,False,True,0.1160,Al: 0.8000; Tc: 0.2000
mp-30336,Al4W,"Al, W",2,0.020917083733333897,Monoclinic,8,Cm,0.0,False,True,0.3000,Al: 0.8000; W: 0.2000
mp-1105101,Ba9In4,"Ba, In",2,0.0,Tetragonal,87,I4/m,0.0,False,True,0.4108,Ba: 0.6923; In: 0.3077
mp-30811,Ni4W,"Ni, W",2,0.0,Tetragonal,87,I4/m,0.0,False,True,0.1800,Ni: 0.8000; W: 0.2000
mp-1070789,CrAu4,"Au, Cr",2,0.0,Tetragonal,87,I4/m,0.0,False,True,0.3520,Cr: 0.2000; Au: 0.8000
mp-1188785,Hf9Ni11,"Hf, Ni",2,0.06696786310000036,Tetragonal,87,I4/m,0.0,False,True,0.3035,Hf: 0.4500; Ni: 0.5500
mp-31472,Rb5Hg19,"Hg, Rb",2,0.0,Tetragonal,87,I4/m,0.0,False,True,0.4792,Rb: 0.2083; Hg: 0.7917
mp-12635,TiAu4,"Au, Ti",2,0.0,Tetragonal,87,I4/m,0.0,False,True,0.4000,Ti: 0.2000; Au: 0.8000
mp-1069697,VAu4,"Au, V",2,0.0,Tetragonal,87,I4/m,0.0,False,True,0.3640,V: 0.2000; Au: 0.8000
mp-12565,MnAu4,"Au, Mn",2,0.0,Tetragonal,87,I4/m,0.0,False,True,0.3960,Mn: 0.2000; Au: 0.8000
mp-30354,ScAg4,"Ag, Sc",2,0.0,Tetragonal,87,I4/m,0.0,False,True,0.2280,Sc: 0.2000; Ag: 0.8000
mp-1068446,ScAu4,"Au, Sc",2,0.0,Tetragonal,87,I4/m,0.0,False,True,0.4720,Sc: 0.2000; Au: 0.8000
mp-11507,Ni4Mo,"Mo, Ni",2,0.007206371000000544,Tetragonal,87,I4/m,0.0,False,True,0.1000,Ni: 0.8000; Mo: 0.2000
mp-30814,Zr9Ni11,"Ni, Zr",2,0.07746416724999872,Tetragonal,87,I4/m,0.0,False,True,0.2885,Zr: 0.4500; Ni: 0.5500
mp-30859,Zr9Pt11,"Pt, Zr",2,0.0833629593333356,Tetragonal,87,I4/m,0.0,False,True,0.4726,Zr: 0.4500; Pt: 0.5500
mp-542239,Cs5Hg19,"Cs, Hg",2,0.0,Tetragonal,87,I4/m,0.0,False,True,0.4914,Cs: 0.2083; Hg: 0.7917
mp-574266,MgGa,"Ga, Mg",2,0.0,Tetragonal,88,I4_1/a,0.0,False,True,0.2500,Mg: 0.5000; Ga: 0.5000
mp-1498,Al21Pd8,"Al, Pd",2,0.0,Tetragonal,88,I4_1/a,0.0,False,True,0.2637,Al: 0.7241; Pd: 0.2759
mp-1982,Al21Pt8,"Al, Pt",2,0.0,Tetragonal,88,I4_1/a,0.0,False,True,0.2995,Al: 0.7241; Pt: 0.2759
mp-581457,Rb15Hg16,"Hg, Rb",2,0.0,Tetragonal,88,I4_1/a,0.0,False,True,0.5897,Rb: 0.4839; Hg: 0.5161
mp-582134,Y3Ni2,"Ni, Y",2,0.0,Tetragonal,92,P4_12_12,0.0,False,True,0.3380,Y: 0.6000; Ni: 0.4000
mp-680639,Cu3Pd,"Cu, Pd",2,0.0014114542857139867,Tetragonal,99,P4mm,0.0,False,True,0.1299,Cu: 0.7500; Pd: 0.2500