material_id,formula,elements,num_elements,energy_above_hull,crystal_system,spacegroup_number,spacegroup_symbol,band_gap,theoretical,is_metal,electronegativity_difference,atomic_concentrations
mp-20466,Sn7Ir5,"Ir, Sn",2,0.002421364999996456,Tetragonal,107,I4mm,0.0,False,True,0.1183,Sn: 0.5833; Ir: 0.4167
mp-567345,NbRh,"Nb, Rh",2,0.01561178666666585,Monoclinic,10,P2/m,0.0,False,True,0.3400,Nb: 0.5000; Rh: 0.5000
mp-569073,LiSn,"Li, Sn",2,0.0,Monoclinic,10,P2/m,0.0,False,True,0.4900,Li: 0.5000; Sn: 0.5000
mp-31284,NaSn5,"Na, Sn",2,0.022532833333333002,Tetragonal,113,P-42_1m,0.0,False,True,0.3839,Na: 0.1667; Sn: 0.8333
mp-30471,CaCu,"Ca, Cu",2,0.00013930450000110284,Monoclinic,11,P2_1/m,0.0,False,True,0.4500,Ca: 0.5000; Cu: 0.5000
mp-30420,SrAu,"Au, Sr",2,0.0,Monoclinic,11,P2_1/m,0.0,False,True,0.7950,Sr: 0.5000; Au: 0.5000
mp-1048,TiNi,"Ni, Ti",2,0.0,Monoclinic,11,P2_1/m,0.0,False,True,0.1850,Ti: 0.5000; Ni: 0.5000
mp-1067210,ZrCu,"Cu, Zr",2,0.02489150673077134,Monoclinic,11,P2_1/m,0.0,False,True,0.2850,Zr: 0.5000; Cu: 0.5000
mp-567638,TaPt3,"Pt, Ta",2,0.0,Monoclinic,11,P2_1/m,0.0,False,True,0.3377,Ta: 0.2500; Pt: 0.7500
mp-1399,AlAu,"Al, Au",2,0.0,Monoclinic,11,P2_1/m,0.0,False,True,0.4650,Al: 0.5000; Au: 0.5000
mp-1199016,Ga5Pt,"Ga, Pt",2,0.0,Monoclinic,11,P2_1/m,0.0,False,True,0.1752,Ga: 0.8333; Pt: 0.1667
mp-569776,TaNi3,"Ni, Ta",2,0.0,Monoclinic,11,P2_1/m,0.0,False,True,0.1775,Ta: 0.2500; Ni: 0.7500
mp-30768,Li7Sn3,"Li, Sn",2,0.0009651171666664737,Monoclinic,11,P2_1/m,0.0,False,True,0.4491,Li: 0.7000; Sn: 0.3000
mp-12700,NbPt3,"Nb, Pt",2,0.0,Monoclinic,11,P2_1/m,0.0,False,True,0.2944,Nb: 0.2500; Pt: 0.7500
mp-1179013,TiNi,"Ni, Ti",2,0.010050409999999843,Monoclinic,11,P2_1/m,0.0,False,True,0.1850,Ti: 0.5000; Ni: 0.5000
mp-30665,Ga17Rh10,"Ga, Rh",2,0.0,Tetragonal,116,P-4c2,0.0,False,True,0.2270,Ga: 0.6296; Rh: 0.3704
mp-680677,Sn3Ru2,"Ru, Sn",2,0.0,Tetragonal,116,P-4c2,0.0,False,True,0.1176,Sn: 0.6000; Ru: 0.4000
mp-574338,CsGa3,"Cs, Ga",2,0.0,Tetragonal,119,I-4m2,0.0,False,True,0.4417,Cs: 0.2500; Ga: 0.7500
mp-30589,LaCu4,"Cu, La",2,0.007857694666665083,Tetragonal,119,I-4m2,0.0,False,True,0.3200,La: 0.2000; Cu: 0.8000
mp-542339,CsIn3,"Cs, In",2,0.0,Tetragonal,119,I-4m2,0.0,False,True,0.4287,Cs: 0.2500; In: 0.7500
mp-30748,Zr3Ir,"Ir, Zr",2,0.0,Tetragonal,121,I-42m,0.0,False,True,0.3767,Zr: 0.7500; Ir: 0.2500
mp-30412,Pb3Au,"Au, Pb",2,0.005083911875004787,Tetragonal,121,I-42m,0.0,False,True,0.0909,Pb: 0.7500; Au: 0.2500
mp-582055,La7Ni16,"La, Ni",2,0.0,Tetragonal,121,I-42m,0.0,False,True,0.3727,La: 0.3043; Ni: 0.6957
mp-569841,Ba19Li44,"Ba, Li",2,0.006834211772487109,Tetragonal,122,I-42d,0.0,False,True,0.0413,Ba: 0.3016; Li: 0.6984
mp-1526,TiHg,"Hg, Ti",2,0.0,Tetragonal,123,P4/mmm,0.0,False,True,0.2300,Ti: 0.5000; Hg: 0.5000
mp-522,CuAu,"Au, Cu",2,0.0,Tetragonal,123,P4/mmm,0.0,False,True,0.3200,Cu: 0.5000; Au: 0.5000
mp-1963,NbRh,"Nb, Rh",2,0.0,Tetragonal,123,P4/mmm,0.0,False,True,0.3400,Nb: 0.5000; Rh: 0.5000
mp-2685,HgPd,"Hg, Pd",2,0.0,Tetragonal,123,P4/mmm,0.0,False,True,0.1000,Hg: 0.5000; Pd: 0.5000
mp-1601,TaRu,"Ru, Ta",2,0.0,Tetragonal,123,P4/mmm,0.0,False,True,0.3500,Ta: 0.5000; Ru: 0.5000
mp-2831,FePd,"Fe, Pd",2,0.008477096666666739,Tetragonal,123,P4/mmm,0.0,False,True,0.1850,Fe: 0.5000; Pd: 0.5000
mp-1359,NbIr,"Ir, Nb",2,0.0,Tetragonal,123,P4/mmm,0.0,False,True,0.3000,Nb: 0.5000; Ir: 0.5000
mp-2213,FeNi,"Fe, Ni",2,0.0,Tetragonal,123,P4/mmm,0.0,False,True,0.0400,Fe: 0.5000; Ni: 0.5000
mp-11470,Hg2Pt,"Hg, Pt",2,0.022148594999990223,Tetragonal,123,P4/mmm,0.0,False,True,0.1320,Hg: 0.6667; Pt: 0.3333
mp-1696,CdPd,"Cd, Pd",2,0.0,Tetragonal,123,P4/mmm,0.0,False,True,0.2550,Cd: 0.5000; Pd: 0.5000
mp-2260,FePt,"Fe, Pt",2,0.0,Tetragonal,123,P4/mmm,0.0,False,True,0.2250,Fe: 0.5000; Pt: 0.5000
mp-2767,TiGa,"Ga, Ti",2,0.0,Tetragonal,123,P4/mmm,0.0,False,True,0.1350,Ti: 0.5000; Ga: 0.5000
mp-2678,VPt,"Pt, V",2,0.0,Tetragonal,123,P4/mmm,0.0,False,True,0.3250,V: 0.5000; Pt: 0.5000
mp-22924,NaBi,"Bi, Na",2,0.0,Tetragonal,123,P4/mmm,0.0,False,True,0.5450,Na: 0.5000; Bi: 0.5000
mp-20034,CaPb,"Ca, Pb",2,0.0,Tetragonal,123,P4/mmm,0.0,False,True,0.6650,Ca: 0.5000; Pb: 0.5000
mp-432,NbRu,"Nb, Ru",2,0.0,Tetragonal,123,P4/mmm,0.0,False,True,0.3000,Nb: 0.5000; Ru: 0.5000
mp-22902,LiBi,"Bi, Li",2,0.0,Tetragonal,123,P4/mmm,0.0,False,True,0.5200,Li: 0.5000; Bi: 0.5000
mp-1797,MnNi,"Mn, Ni",2,0.036898397356321055,Tetragonal,123,P4/mmm,0.0,False,True,0.1800,Mn: 0.5000; Ni: 0.5000
mp-11870,Hg2Rh,"Hg, Rh",2,0.0,Tetragonal,123,P4/mmm,0.0,False,True,0.1320,Hg: 0.6667; Rh: 0.3333
mp-1652,ZnPd,"Pd, Zn",2,0.0,Tetragonal,123,P4/mmm,0.0,False,True,0.2750,Zn: 0.5000; Pd: 0.5000
mp-758104,Mn11Pd21,"Mn, Pd",2,0.0234693900000007,Tetragonal,123,P4/mmm,0.0,False,True,0.3087,Mn: 0.3438; Pd: 0.6562
mp-1001836,MnGa,"Ga, Mn",2,0.0,Tetragonal,123,P4/mmm,0.0,False,True,0.1300,Mn: 0.5000; Ga: 0.5000
mp-1953,TiAl,"Al, Ti",2,0.0,Tetragonal,123,P4/mmm,0.0,False,True,0.0350,Ti: 0.5000; Al: 0.5000
mp-570199,Ti3Pd5,"Pd, Ti",2,0.0008255312500011769,Tetragonal,123,P4/mmm,0.0,False,True,0.3195,Ti: 0.3750; Pd: 0.6250
mp-1251,VRh,"Rh, V",2,0.04173331499999833,Tetragonal,123,P4/mmm,0.0,False,True,0.3250,V: 0.5000; Rh: 0.5000
mp-1670,MnPt,"Mn, Pt",2,0.0,Tetragonal,123,P4/mmm,0.0,False,True,0.3650,Mn: 0.5000; Pt: 0.5000
mp-2583,TiRh,"Rh, Ti",2,0.0,Tetragonal,123,P4/mmm,0.0,False,True,0.3700,Ti: 0.5000; Rh: 0.5000
mp-2510,ZrHg,"Hg, Zr",2,0.0,Tetragonal,123,P4/mmm,0.0,False,True,0.3350,Zr: 0.5000; Hg: 0.5000
mp-429,ZnNi,"Ni, Zn",2,0.0,Tetragonal,123,P4/mmm,0.0,False,True,0.1300,Zn: 0.5000; Ni: 0.5000
mp-11359,Ga2Cu,"Cu, Ga",2,0.0,Tetragonal,123,P4/mmm,0.0,False,True,0.0424,Ga: 0.6667; Cu: 0.3333
mp-945,NiPt,"Ni, Pt",2,0.0,Tetragonal,123,P4/mmm,0.0,False,True,0.1850,Ni: 0.5000; Pt: 0.5000
mp-12675,MnAu,"Au, Mn",2,0.07166042301724218,Tetragonal,123,P4/mmm,0.0,False,True,0.4950,Mn: 0.5000; Au: 0.5000
mp-1281,VIr,"Ir, V",2,0.04575373000000127,Tetragonal,123,P4/mmm,0.0,False,True,0.2850,V: 0.5000; Ir: 0.5000
mp-949,CoPt,"Co, Pt",2,0.0,Tetragonal,123,P4/mmm,0.0,False,True,0.2000,Co: 0.5000; Pt: 0.5000
mp-672265,Cu3Pd,"Cu, Pd",2,0.0,Tetragonal,123,P4/mmm,0.0,False,True,0.1299,Cu: 0.7500; Pd: 0.2500
mp-1194,CdPt,"Cd, Pt",2,0.0,Tetragonal,123,P4/mmm,0.0,False,True,0.2950,Cd: 0.5000; Pt: 0.5000
mp-771,MnAl,"Al, Mn",2,0.0,Tetragonal,123,P4/mmm,0.0,False,True,0.0300,Mn: 0.5000; Al: 0.5000
mp-1235,TiIr,"Ir, Ti",2,0.0,Tetragonal,123,P4/mmm,0.0,False,True,0.3300,Ti: 0.5000; Ir: 0.5000
mp-238,MnPd,"Mn, Pd",2,0.0022244234137920316,Tetragonal,123,P4/mmm,0.0,False,True,0.3250,Mn: 0.5000; Pd: 0.5000
mp-894,ZnPt,"Pt, Zn",2,0.0,Tetragonal,123,P4/mmm,0.0,False,True,0.3150,Zn: 0.5000; Pt: 0.5000
mp-510436,InPd3,"In, Pd",2,0.025990728749999192,Tetragonal,123,P4/mmm,0.0,False,True,0.1819,In: 0.2500; Pd: 0.7500
mp-644739,LaGa6,"Ga, La",2,0.0,Tetragonal,125,P4/nbm,0.0,False,True,0.2484,La: 0.1429; Ga: 0.8571
mp-30681,YGa6,"Ga, Y",2,0.02514581607142885,Tetragonal,125,P4/nbm,0.0,False,True,0.2065,Y: 0.1429; Ga: 0.8571
mp-21296,PtPb4,"Pb, Pt",2,0.0,Tetragonal,125,P4/nbm,0.0,False,True,0.0200,Pt: 0.2000; Pb: 0.8000
mp-1202778,K3Cd16,"Cd, K",2,0.0,Tetragonal,126,P4/nnc,0.0,False,True,0.3172,K: 0.1579; Cd: 0.8421
mp-11288,Ca3Hg2,"Ca, Hg",2,0.0,Tetragonal,127,P4/mbm,0.0,False,True,0.4899,Ca: 0.6000; Hg: 0.4000
mp-607111,AlPt3,"Al, Pt",2,0.0,Tetragonal,127,P4/mbm,0.0,False,True,0.2901,Al: 0.2500; Pt: 0.7500
mp-1079182,AlPt3,"Al, Pt",2,0.013525094375005153,Tetragonal,127,P4/mbm,0.0,False,True,0.2901,Al: 0.2500; Pt: 0.7500
mp-30684,Zr3Ga2,"Ga, Zr",2,0.0,Tetragonal,127,P4/mbm,0.0,False,True,0.2352,Zr: 0.6000; Ga: 0.4000
mp-1080493,Y3Au2,"Au, Y",2,0.04981915999999842,Tetragonal,127,P4/mbm,0.0,False,True,0.6467,Y: 0.6000; Au: 0.4000
mp-20405,V2Ga5,"Ga, V",2,0.0,Tetragonal,127,P4/mbm,0.0,False,True,0.0813,V: 0.2857; Ga: 0.7143
mp-1103522,Ga5W2,"Ga, W",2,0.05819230464285852,Tetragonal,127,P4/mbm,0.0,False,True,0.2485,Ga: 0.7143; W: 0.2857
mp-1105078,Hf3In4,"Hf, In",2,0.07661191571428816,Tetragonal,127,P4/mbm,0.0,False,True,0.2375,Hf: 0.4286; In: 0.5714
mp-1078957,Ta3Be2,"Be, Ta",2,0.0,Tetragonal,127,P4/mbm,0.0,False,True,0.0343,Ta: 0.6000; Be: 0.4000
mp-607225,Mn2Ga5,"Ga, Mn",2,0.032226584285714566,Tetragonal,127,P4/mbm,0.0,False,True,0.1175,Mn: 0.2857; Ga: 0.7143
mp-20433,Ti3In4,"In, Ti",2,0.0936128061904764,Tetragonal,127,P4/mbm,0.0,False,True,0.1188,Ti: 0.4286; In: 0.5714
mp-30721,Hg5Pd2,"Hg, Pd",2,0.03967810749999523,Tetragonal,127,P4/mbm,0.0,False,True,0.0904,Hg: 0.7143; Pd: 0.2857
mp-13427,Sr3Hg2,"Hg, Sr",2,0.0,Tetragonal,127,P4/mbm,0.0,False,True,0.5144,Sr: 0.6000; Hg: 0.4000
mp-11272,Be2Nb3,"Be, Nb",2,0.0,Tetragonal,127,P4/mbm,0.0,False,True,0.0147,Be: 0.4000; Nb: 0.6000
mp-1078666,GaPt3,"Ga, Pt",2,0.014097253750001926,Tetragonal,127,P4/mbm,0.0,False,True,0.2035,Ga: 0.2500; Pt: 0.7500
mp-669913,Sr2Pb3,"Pb, Sr",2,0.00764726599999932,Tetragonal,127,P4/mbm,0.0,False,True,0.6761,Sr: 0.4000; Pb: 0.6000
mp-11393,Nb3Ga2,"Ga, Nb",2,0.0,Tetragonal,127,P4/mbm,0.0,False,True,0.1029,Nb: 0.6000; Ga: 0.4000
mp-7924,Li2Sn5,"Li, Sn",2,0.0046469228571428545,Tetragonal,127,P4/mbm,0.0,False,True,0.4427,Li: 0.2857; Sn: 0.7143
mp-22050,Hf2In5,"Hf, In",2,0.0,Tetragonal,127,P4/mbm,0.0,False,True,0.2168,Hf: 0.2857; In: 0.7143
mp-16756,Ta3Ga2,"Ga, Ta",2,0.0,Tetragonal,127,P4/mbm,0.0,False,True,0.1519,Ta: 0.6000; Ga: 0.4000
mp-568404,Li9Al4,"Al, Li",2,0.0,Monoclinic,12,C2/m,0.0,False,True,0.2908,Li: 0.6923; Al: 0.3077
mp-568746,Bi2Pd,"Bi, Pd",2,0.0,Monoclinic,12,C2/m,0.0,False,True,0.0849,Bi: 0.6667; Pd: 0.3333
mp-571060,In9Pt13,"In, Pt",2,0.049124047272719906,Monoclinic,12,C2/m,0.0,False,True,0.2458,In: 0.4091; Pt: 0.5909
mp-30410,Mn2Au5,"Au, Mn",2,0.014431074999997406,Monoclinic,12,C2/m,0.0,False,True,0.4472,Mn: 0.2857; Au: 0.7143
mp-21589,Ga9Ni13,"Ga, Ni",2,0.0,Monoclinic,12,C2/m,0.0,False,True,0.0492,Ga: 0.4091; Ni: 0.5909
mp-1188069,Zr2Ni7,"Ni, Zr",2,0.0038042649999994183,Monoclinic,12,C2/m,0.0,False,True,0.2411,Zr: 0.2222; Ni: 0.7778
mp-13447,Zn13Rh,"Rh, Zn",2,0.0,Monoclinic,12,C2/m,0.0,False,True,0.1622,Zn: 0.9286; Rh: 0.0714
mp-641509,In9Ni13,"In, Ni",2,0.06179680954545219,Monoclinic,12,C2/m,0.0,False,True,0.0639,In: 0.4091; Ni: 0.5909
mp-567207,SrIn4,"In, Sr",2,0.007084296222223063,Monoclinic,12,C2/m,0.0,False,True,0.3320,Sr: 0.2000; In: 0.8000
mp-31019,Al45Cr7,"Al, Cr",2,0.0,Monoclinic,12,C2/m,0.0,False,True,0.0171,Al: 0.8654; Cr: 0.1346
mp-1077372,Zr2Cu,"Cu, Zr",2,0.04423778166666903,Monoclinic,12,C2/m,0.0,False,True,0.2687,Zr: 0.6667; Cu: 0.3333
mp-30464,Bi2Pd5,"Bi, Pd",2,0.0,Monoclinic,12,C2/m,0.0,False,True,0.0813,Bi: 0.2857; Pd: 0.7143
mp-31467,Ga3Pd7,"Ga, Pd",2,0.0008468572499964466,Monoclinic,12,C2/m,0.0,False,True,0.1787,Ga: 0.3000; Pd: 0.7000
mp-1205422,Hf2Co7,"Co, Hf",2,0.008048037727270696,Monoclinic,12,C2/m,0.0,False,True,0.2411,Hf: 0.2222; Co: 0.7778
mp-30568,Zn13Co,"Co, Zn",2,0.0,Monoclinic,12,C2/m,0.0,False,True,0.0592,Zn: 0.9286; Co: 0.0714
mp-20174,Ni3Sn4,"Ni, Sn",2,0.0,Monoclinic,12,C2/m,0.0,False,True,0.0247,Ni: 0.4286; Sn: 0.5714
mp-2733,Al8Mo3,"Al, Mo",2,0.0,Monoclinic,12,C2/m,0.0,False,True,0.2449,Al: 0.7273; Mo: 0.2727
mp-1091391,BaTl4,"Ba, Tl",2,0.0,Monoclinic,12,C2/m,0.0,False,True,0.2920,Ba: 0.2000; Tl: 0.8000
mp-583168,NaSn2,"Na, Sn",2,0.0,Monoclinic,12,C2/m,0.0,False,True,0.4855,Na: 0.3333; Sn: 0.6667
mp-570920,Ga5Fe6,"Fe, Ga",2,0.031206838323865504,Monoclinic,12,C2/m,0.0,False,True,0.0100,Ga: 0.4545; Fe: 0.5455
mp-2500,AlCu,"Al, Cu",2,0.0,Monoclinic,12,C2/m,0.0,False,True,0.1450,Al: 0.5000; Cu: 0.5000
mp-1179520,Sc5Ga3,"Ga, Sc",2,0.007125837812498759,Monoclinic,12,C2/m,0.0,False,True,0.2179,Sc: 0.6250; Ga: 0.3750
mp-567919,Al45V7,"Al, V",2,0.015895317307692558,Monoclinic,12,C2/m,0.0,False,True,0.0068,Al: 0.8654; V: 0.1346
mp-540538,Ga4Fe3,"Fe, Ga",2,0.022887623080357855,Monoclinic,12,C2/m,0.0,False,True,0.0099,Ga: 0.5714; Fe: 0.4286
mp-18654,Cr3Ga4,"Cr, Ga",2,0.08692408904762061,Monoclinic,12,C2/m,0.0,False,True,0.0742,Cr: 0.4286; Ga: 0.5714
mp-17880,Al13Ru4,"Al, Ru",2,0.0,Monoclinic,12,C2/m,0.0,False,True,0.2503,Al: 0.7647; Ru: 0.2353
mp-2461,CaGa4,"Ca, Ga",2,0.0016006820000011857,Monoclinic,12,C2/m,0.0,False,True,0.3240,Ca: 0.2000; Ga: 0.8000
mp-567929,Al13Os4,"Al, Os",2,0.0,Monoclinic,12,C2/m,0.0,False,True,0.2503,Al: 0.7647; Os: 0.2353
mp-2717,Zr2Ni7,"Ni, Zr",2,0.0,Monoclinic,12,C2/m,0.0,False,True,0.2411,Zr: 0.2222; Ni: 0.7778
mp-1722,Zn13Fe,"Fe, Zn",2,0.0,Monoclinic,12,C2/m,0.0,False,True,0.0464,Zn: 0.9286; Fe: 0.0714
mp-1203489,Al13Rh4,"Al, Rh",2,0.0223804461397048,Monoclinic,12,C2/m,0.0,False,True,0.2842,Al: 0.7647; Rh: 0.2353
mp-1193055,Ca13Al14,"Al, Ca",2,0.0,Monoclinic,12,C2/m,0.0,False,True,0.3048,Ca: 0.4815; Al: 0.5185
mp-646039,In7Cu10,"Cu, In",2,0.0,Monoclinic,12,C2/m,0.0,False,True,0.0591,In: 0.4118; Cu: 0.5882
mp-580931,MgZn5,"Mg, Zn",2,0.03014021803571265,Monoclinic,12,C2/m,0.0,False,True,0.1267,Mg: 0.1667; Zn: 0.8333
mp-1202900,Al13Fe4,"Al, Fe",2,0.0,Monoclinic,12,C2/m,0.0,False,True,0.0933,Al: 0.7647; Fe: 0.2353
mp-510438,InPt,"In, Pt",2,0.020134795125002825,Monoclinic,12,C2/m,0.0,False,True,0.2500,In: 0.5000; Pt: 0.5000
mp-31485,Ga5Pd13,"Ga, Pd",2,0.0,Monoclinic,12,C2/m,0.0,False,True,0.1747,Ga: 0.2778; Pd: 0.7222
mp-622570,Ti2Cu3,"Cu, Ti",2,0.0024576344999989175,Tetragonal,129,P4/nmm,0.0,False,True,0.1764,Ti: 0.4000; Cu: 0.6000
mp-998972,TiAu,"Au, Ti",2,0.0,Tetragonal,129,P4/nmm,0.0,False,True,0.5000,Ti: 0.5000; Au: 0.5000
mp-640045,Ti8Bi9,"Bi, Ti",2,0.0,Tetragonal,129,P4/nmm,0.0,False,True,0.2396,Ti: 0.4706; Bi: 0.5294
mp-1007758,HfCd,"Cd, Hf",2,0.0,Tetragonal,129,P4/nmm,0.0,False,True,0.1950,Hf: 0.5000; Cd: 0.5000
mp-999133,TaPd,"Pd, Ta",2,0.0,Tetragonal,129,P4/nmm,0.0,False,True,0.3500,Ta: 0.5000; Pd: 0.5000
mp-11239,ZrAg,"Ag, Zr",2,0.0,Tetragonal,129,P4/nmm,0.0,False,True,0.3000,Zr: 0.5000; Ag: 0.5000
mp-2078,TiCu,"Cu, Ti",2,0.0,Tetragonal,129,P4/nmm,0.0,False,True,0.1800,Ti: 0.5000; Cu: 0.5000
mp-1007755,HfAu,"Au, Hf",2,0.0,Tetragonal,129,P4/nmm,0.0,False,True,0.6200,Hf: 0.5000; Au: 0.5000
mp-23313,InBi,"Bi, In",2,0.04432653499999617,Tetragonal,129,P4/nmm,0.0,False,True,0.1200,In: 0.5000; Bi: 0.5000
mp-1017985,TiAg,"Ag, Ti",2,0.0,Tetragonal,129,P4/nmm,0.0,False,True,0.1950,Ti: 0.5000; Ag: 0.5000
mp-13156,HfAg,"Ag, Hf",2,0.0,Tetragonal,129,P4/nmm,0.0,False,True,0.3150,Hf: 0.5000; Ag: 0.5000
mp-1017540,ZrCd,"Cd, Zr",2,0.0,Tetragonal,129,P4/nmm,0.0,False,True,0.1800,Zr: 0.5000; Cd: 0.5000
mp-30500,TiCd,"Cd, Ti",2,0.0,Tetragonal,129,P4/nmm,0.0,False,True,0.0750,Ti: 0.5000; Cd: 0.5000
mp-1199235,La5Ir3,"Ir, La",2,0.0,Tetragonal,130,P4/ncc,0.0,False,True,0.5325,La: 0.6250; Ir: 0.3750
mp-1198712,Y5Ir3,"Ir, Y",2,0.0,Tetragonal,130,P4/ncc,0.0,False,True,0.4744,Y: 0.6250; Ir: 0.3750
mp-672217,La5Ga3,"Ga, La",2,0.0,Tetragonal,130,P4/ncc,0.0,False,True,0.3437,La: 0.6250; Ga: 0.3750
mp-672256,Y5Ga3,"Ga, Y",2,0.01638631367187493,Tetragonal,130,P4/ncc,0.0,False,True,0.2856,Y: 0.6250; Ga: 0.3750
mp-1192771,OsW2,"Os, W",2,0.029563740999996924,Tetragonal,136,P4_2/mnm,0.0,False,True,0.0754,Os: 0.3333; W: 0.6667
mp-1188977,Ga3Rh,"Ga, Rh",2,0.011919769810266878,Tetragonal,136,P4_2/mnm,0.0,False,True,0.2035,Ga: 0.7500; Rh: 0.2500
mp-1193531,Ta2Al,"Al, Ta",2,0.0,Tetragonal,136,P4_2/mnm,0.0,False,True,0.0519,Ta: 0.6667; Al: 0.3333
mp-636368,Ga3Fe,"Fe, Ga",2,0.0,Tetragonal,136,P4_2/mnm,0.0,False,True,0.0087,Ga: 0.7500; Fe: 0.2500
mp-570560,Na3Hg2,"Hg, Na",2,0.048197753000000176,Tetragonal,136,P4_2/mnm,0.0,False,True,0.5242,Na: 0.6000; Hg: 0.4000
mp-1194495,Ta2Au,"Au, Ta",2,0.0,Tetragonal,136,P4_2/mnm,0.0,False,True,0.4903,Ta: 0.6667; Au: 0.3333
mp-1195396,Nb4Ga5,"Ga, Nb",2,0.003169862222222264,Tetragonal,136,P4_2/mnm,0.0,False,True,0.1043,Nb: 0.4444; Ga: 0.5556
mp-22236,In3Co,"Co, In",2,0.0,Tetragonal,136,P4_2/mnm,0.0,False,True,0.0433,In: 0.7500; Co: 0.2500
mp-13470,Zr3Al2,"Al, Zr",2,0.03617644129999675,Tetragonal,136,P4_2/mnm,0.0,False,True,0.1372,Zr: 0.6000; Al: 0.4000
mp-20559,Ga3Co,"Co, Ga",2,0.0,Tetragonal,136,P4_2/mnm,0.0,False,True,0.0303,Ga: 0.7500; Co: 0.2500
mp-630976,In3Ir,"In, Ir",2,0.004296428125002194,Tetragonal,136,P4_2/mnm,0.0,False,True,0.1819,In: 0.7500; Ir: 0.2500
mp-7507,Sr3Li2,"Li, Sr",2,0.005140342409089671,Tetragonal,136,P4_2/mnm,0.0,False,True,0.0147,Sr: 0.6000; Li: 0.4000
mp-1189634,Ga3Ir,"Ga, Ir",2,0.022756848625000714,Tetragonal,136,P4_2/mnm,0.0,False,True,0.1689,Ga: 0.7500; Ir: 0.2500
mp-1193848,Zr2Re,"Re, Zr",2,0.0844003301333327,Tetragonal,136,P4_2/mnm,0.0,False,True,0.2687,Zr: 0.6667; Re: 0.3333
mp-18614,In3Rh,"In, Rh",2,0.0,Tetragonal,136,P4_2/mnm,0.0,False,True,0.2165,In: 0.7500; Rh: 0.2500
mp-1192954,Nb2Pt,"Nb, Pt",2,0.0,Tetragonal,136,P4_2/mnm,0.0,False,True,0.3206,Nb: 0.6667; Pt: 0.3333
mp-18427,Nb2Al,"Al, Nb",2,0.0,Tetragonal,136,P4_2/mnm,0.0,False,True,0.0047,Nb: 0.6667; Al: 0.3333
mp-1193202,Mo2Ru,"Mo, Ru",2,0.04611149277777926,Tetragonal,136,P4_2/mnm,0.0,False,True,0.0189,Mo: 0.6667; Ru: 0.3333
mp-1188393,Ga3Re,"Ga, Re",2,0.0,Tetragonal,136,P4_2/mnm,0.0,False,True,0.0390,Ga: 0.7500; Re: 0.2500
mp-17974,Na3Hg2,"Hg, Na",2,0.0,Tetragonal,136,P4_2/mnm,0.0,False,True,0.5242,Na: 0.6000; Hg: 0.4000
mp-8462,Hf3Al2,"Al, Hf",2,0.03970273833332527,Tetragonal,136,P4_2/mnm,0.0,False,True,0.1519,Hf: 0.6000; Al: 0.4000
mp-16723,Y3Al2,"Al, Y",2,0.0034791360000010485,Tetragonal,136,P4_2/mnm,0.0,False,True,0.1911,Y: 0.6000; Al: 0.4000
mp-672204,Ga3Ru,"Ga, Ru",2,0.0,Tetragonal,136,P4_2/mnm,0.0,False,True,0.1689,Ga: 0.7500; Ru: 0.2500
mp-510494,La5Sn3,"La, Sn",2,0.0,Tetragonal,140,I4/mcm,0.0,False,True,0.4163,La: 0.6250; Sn: 0.3750
mp-328,Zr2Ni,"Ni, Zr",2,0.0,Tetragonal,140,I4/mcm,0.0,False,True,0.2734,Zr: 0.6667; Ni: 0.3333
mp-570293,Nb5Ga3,"Ga, Nb",2,0.016266065937500684,Tetragonal,140,I4/mcm,0.0,False,True,0.1017,Nb: 0.6250; Ga: 0.3750
mp-569833,Zr2Ga,"Ga, Zr",2,0.0,Tetragonal,140,I4/mcm,0.0,False,True,0.2263,Zr: 0.6667; Ga: 0.3333
mp-542484,Sr5Cd3,"Cd, Sr",2,0.0,Tetragonal,140,I4/mcm,0.0,False,True,0.3583,Sr: 0.6250; Cd: 0.3750
mp-1080448,AlPt3,"Al, Pt",2,0.0024148456250046024,Tetragonal,140,I4/mcm,0.0,False,True,0.2901,Al: 0.2500; Pt: 0.7500
mp-17720,Sr5Sn3,"Sn, Sr",2,0.003021452500000521,Tetragonal,140,I4/mcm,0.0,False,True,0.4890,Sr: 0.6250; Sn: 0.3750
mp-570362,Sr5In3,"In, Sr",2,0.00672603554228024,Tetragonal,140,I4/mcm,0.0,False,True,0.4018,Sr: 0.6250; In: 0.3750
mp-16724,Zr5Al3,"Al, Zr",2,0.022739610249995934,Tetragonal,140,I4/mcm,0.0,False,True,0.1356,Zr: 0.6250; Al: 0.3750
mp-861,Hf2Ni,"Hf, Ni",2,0.013278753333331395,Tetragonal,140,I4/mcm,0.0,False,True,0.2876,Hf: 0.6667; Ni: 0.3333
mp-570896,Tl2Pd,"Pd, Tl",2,0.0,Tetragonal,140,I4/mcm,0.0,False,True,0.2734,Tl: 0.6667; Pd: 0.3333
mp-680302,Ca31Sn20,"Ca, Sn",2,0.0,Tetragonal,140,I4/mcm,0.0,False,True,0.4687,Ca: 0.6078; Sn: 0.3922
mp-1077297,Zr2Ir,"Ir, Zr",2,0.010654014722220495,Tetragonal,140,I4/mcm,0.0,False,True,0.4101,Zr: 0.6667; Ir: 0.3333
mp-1204352,Y3Ga2,"Ga, Y",2,0.0,Tetragonal,140,I4/mcm,0.0,False,True,0.2890,Y: 0.6000; Ga: 0.4000
mp-20155,CoSn2,"Co, Sn",2,0.012927669861110047,Tetragonal,140,I4/mcm,0.0,False,True,0.0377,Co: 0.3333; Sn: 0.6667
mp-12773,Zr2Al,"Al, Zr",2,0.04362543433332888,Tetragonal,140,I4/mcm,0.0,False,True,0.1320,Zr: 0.6667; Al: 0.3333
mp-998,Al2Cu,"Al, Cu",2,0.04758887666666567,Tetragonal,140,I4/mcm,0.0,False,True,0.1367,Al: 0.6667; Cu: 0.3333
mp-1867,Ta2Ni,"Ni, Ta",2,0.0,Tetragonal,140,I4/mcm,0.0,False,True,0.1933,Ta: 0.6667; Ni: 0.3333
mp-11278,Ta2Be,"Be, Ta",2,0.0,Tetragonal,140,I4/mcm,0.0,False,True,0.0330,Ta: 0.6667; Be: 0.3333
mp-1159,Zr2Fe,"Fe, Zr",2,0.004575485666668655,Tetragonal,140,I4/mcm,0.0,False,True,0.2357,Zr: 0.6667; Fe: 0.3333
mp-1189870,Ca5Ga3,"Ca, Ga",2,0.000224381764706294,Tetragonal,140,I4/mcm,0.0,False,True,0.3921,Ca: 0.6250; Ga: 0.3750
mp-510219,Sn2Ru,"Ru, Sn",2,0.0667029431666677,Tetragonal,140,I4/mcm,0.0,False,True,0.1131,Sn: 0.6667; Ru: 0.3333
mp-30368,Ca5Au3,"Au, Ca",2,0.0,Tetragonal,140,I4/mcm,0.0,False,True,0.7455,Ca: 0.6250; Au: 0.3750
mp-574,Ta2Co,"Co, Ta",2,0.0,Tetragonal,140,I4/mcm,0.0,False,True,0.1791,Ta: 0.6667; Co: 0.3333
mp-22795,Pb2Au,"Au, Pb",2,0.0,Tetragonal,140,I4/mcm,0.0,False,True,0.0990,Pb: 0.6667; Au: 0.3333