material_id,formula,elements,num_elements,energy_above_hull,crystal_system,spacegroup_number,spacegroup_symbol,band_gap,theoretical,is_metal,electronegativity_difference
mp-1185810,Mg5Hg,"Hg, Mg",2,0.05255089249999867,Monoclinic,8,Cm,0.0,True,True,0.2571478174124758
mp-1039463,MgCd,"Cd, Mg",2,0.061447467499998965,Monoclinic,8,Cm,0.0,True,True,0.18999999999999995
mp-1094667,MgGa,"Ga, Mg",2,0.08695790000000025,Monoclinic,8,Cm,0.0,True,True,0.25
mp-1185903,MgIn2,"In, Mg",2,0.023427722962961806,Monoclinic,8,Cm,0.0,True,True,0.22156012477178486
mp-1094662,MgGa5,"Ga, Mg",2,0.044938903958332777,Monoclinic,8,Cm,0.0,True,True,0.18633899812498245
mp-1094178,La5Mg,"La, Mg",2,0.04690696750000001,Monoclinic,8,Cm,0.0,True,True,0.07826237921249263
mp-1094830,MgCd5,"Cd, Mg",2,0.05899173527778001,Monoclinic,8,Cm,0.0,True,True,0.14161763857498663
mp-1039360,CaMg,"Ca, Mg",2,0.08023881791666598,Monoclinic,8,Cm,0.0,True,True,0.15500000000000003
mp-1094485,MgZn5,"Mg, Zn",2,0.07428632595237938,Monoclinic,8,Cm,0.0,True,True,0.12671051872498804
mp-1223773,K5Bi4,"Bi, K",2,0.002252392476852716,Monoclinic,8,Cm,0.0,True,True,0.5962847939999439
mp-1094649,Mg2Ga,"Ga, Mg",2,0.07632912777777712,Monoclinic,8,Cm,0.0,True,True,0.23570226039551584
mp-973147,Mg5Sc,"Mg, Sc",2,0.04817820166666653,Monoclinic,8,Cm,0.0,True,True,0.018633899812498265
mp-30336,Al4W,"Al, W",2,0.020917083733333897,Monoclinic,8,Cm,0.0,False,True,0.2999999999999999
mp-1094459,Mg5Zn,"Mg, Zn",2,0.06507377910000023,Monoclinic,8,Cm,0.0,True,True,0.12671051872498804
mp-1185809,Mg5Ag,"Ag, Mg",2,0.04406307500000062,Monoclinic,8,Cm,0.0,True,True,0.23106035767497823
mp-1038797,MgCd2,"Cd, Mg",2,0.055810067222221704,Monoclinic,8,Cm,0.0,True,True,0.179133717900592
mp-1094387,MgTi5,"Mg, Ti",2,0.08925500138888864,Monoclinic,8,Cm,0.0,True,True,0.08571593913749193
mp-1094215,MgSn,"Mg, Sn",2,0.06825629374999931,Monoclinic,8,Cm,0.0,True,True,0.32499999999999996
mp-1039531,Ca2Mg,"Ca, Mg",2,0.08699008583333279,Monoclinic,8,Cm,0.0,True,True,0.14613540144521983
mp-1094643,MgGa,"Ga, Mg",2,0.0758000166666668,Monoclinic,8,Cm,0.0,True,True,0.25
mp-1094685,Mg16Al13,"Al, Mg",2,0.003992390603448914,Monoclinic,8,Cm,0.0,True,True,0.14919522519161338
mp-1039086,Ca5Mg,"Ca, Mg",2,0.04262218041666688,Monoclinic,8,Cm,0.0,True,True,0.11553017883748914
mp-574266,MgGa,"Ga, Mg",2,0.0,Tetragonal,88,I4_1/a,0.0,False,True,0.25
mp-1498,Al21Pd8,"Al, Pd",2,0.0,Tetragonal,88,I4_1/a,0.0,False,True,0.263699104280044
mp-1982,Al21Pt8,"Al, Pt",2,0.0,Tetragonal,88,I4_1/a,0.0,False,True,0.2994549150298803
mp-581457,Rb15Hg16,"Hg, Rb",2,0.0,Tetragonal,88,I4_1/a,0.0,False,True,0.5896929481967422
mp-1105101,Ba9In4,"Ba, In",2,0.0,Tetragonal,87,I4/m,0.0,False,True,0.4107692307692308
mp-30811,Ni4W,"Ni, W",2,0.0,Tetragonal,87,I4/m,0.0,False,True,0.18
mp-1207436,Zr9Pd11,"Pd, Zr",2,0.052270033250000125,Tetragonal,87,I4/m,0.0,True,True,0.4328195351413797
mp-1070789,CrAu4,"Au, Cr",2,0.0,Tetragonal,87,I4/m,0.0,False,True,0.35200000000000004
mp-1188785,Hf9Ni11,"Hf, Ni",2,0.06696786310000036,Tetragonal,87,I4/m,0.0,False,True,0.303471168317519
mp-31472,Rb5Hg19,"Hg, Rb",2,0.0,Tetragonal,87,I4/m,0.0,False,True,0.4792173886197741
mp-12635,TiAu4,"Au, Ti",2,0.0,Tetragonal,87,I4/m,0.0,False,True,0.4
mp-1069697,VAu4,"Au, V",2,0.0,Tetragonal,87,I4/m,0.0,False,True,0.3640000000000001
mp-12565,MnAu4,"Au, Mn",2,0.0,Tetragonal,87,I4/m,0.0,False,True,0.39599999999999996
mp-30354,ScAg4,"Ag, Sc",2,0.0,Tetragonal,87,I4/m,0.0,False,True,0.22799999999999992
mp-1211590,La5Mg41,"La, Mg",2,0.0055615945652176535,Tetragonal,87,I4/m,0.0,True,True,0.0653639657236529
mp-1068446,ScAu4,"Au, Sc",2,0.0,Tetragonal,87,I4/m,0.0,False,True,0.47200000000000003
mp-11507,Ni4Mo,"Mo, Ni",2,0.007206371000000544,Tetragonal,87,I4/m,0.0,False,True,0.10000000000000009
mp-30814,Zr9Ni11,"Ni, Zr",2,0.07746416724999872,Tetragonal,87,I4/m,0.0,False,True,0.2885463567609197
mp-30859,Zr9Pt11,"Pt, Zr",2,0.0833629593333356,Tetragonal,87,I4/m,0.0,False,True,0.47261903262564436
mp-542239,Cs5Hg19,"Cs, Hg",2,0.0,Tetragonal,87,I4/m,0.0,False,True,0.49140088155078526
mp-608072,SrIn,"In, Sr",2,0.0,Monoclinic,9,Cc,0.0,True,True,0.41500000000000004
mp-582134,Y3Ni2,"Ni, Y",2,0.0,Tetragonal,92,P4_12_12,0.0,False,True,0.33802958450407855
mp-1190176,Ba3Sn2,"Ba, Sn",2,0.0047372440000033045,Tetragonal,96,P4_32_12,0.37470000000000026,False,False,0.5241908049556001
mp-1222172,Mg3Au13,"Au, Mg",2,0.0,Tetragonal,99,P4mm,0.0,True,True,0.4800842211268769
mp-1217111,Ti5Al11,"Al, Ti",2,0.015042714999999873,Tetragonal,99,P4mm,0.0,True,True,0.032445868381043554
mp-680639,Cu3Pd,"Cu, Pd",2,0.0014114542857139867,Tetragonal,99,P4mm,0.0,False,True,0.1299038105676659