material_id,formula,elements,num_elements,energy_above_hull,crystal_system,spacegroup_number,spacegroup_symbol,band_gap,theoretical,is_metal,electronegativity_difference
mp-1094988,MgSn3,"Mg, Sn",2,0.08533692187500064,Orthorhombic,25,Pmm2,0.0,True,True,0.2814582562299425
mp-1016243,Mg3Zn,"Mg, Zn",2,0.06835206115000014,Orthorhombic,25,Pmm2,0.0,True,True,0.1472243186433545
mp-1221420,MoPt3,"Mo, Pt",2,0.09937771750000479,Orthorhombic,25,Pmm2,0.0,True,True,0.05196152422706617
mp-1094851,MgCd3,"Cd, Mg",2,0.03183693541666699,Orthorhombic,25,Pmm2,0.0,True,True,0.1645448267190433
mp-1016222,LiMg3,"Li, Mg",2,0.021308161249999902,Orthorhombic,25,Pmm2,0.0,True,True,0.1428941916244324
mp-1217515,Ti13Pb3,"Pb, Ti",2,0.006348488958330734,Orthorhombic,25,Pmm2,0.0,True,True,0.30834677617092093
mp-1016237,Mg3Cd,"Cd, Mg",2,0.02352114125000071,Orthorhombic,25,Pmm2,0.0,True,True,0.1645448267190433
mp-16515,Al4Ni3,"Al, Ni",2,0.0,Cubic,230,Ia-3d,0.0,False,True,0.14846149779161796
mp-30655,Ga4Ni3,"Ga, Ni",2,0.009664909328231275,Cubic,230,Ia-3d,0.0,False,True,0.049487165930539284
mp-30467,Bi4Rh,"Bi, Rh",2,0.0,Cubic,230,Ia-3d,0.0,False,True,0.10399999999999993
mp-30352,NaAg2,"Ag, Na",2,0.0,Cubic,227,Fd-3m,0.0,False,True,0.4714045207910316
mp-1425,TiCr2,"Cr, Ti",2,0.08397102277777613,Cubic,227,Fd-3m,0.0,False,True,0.05656854249492375
mp-1934,LiZn,"Li, Zn",2,0.0,Cubic,227,Fd-3m,0.0,False,True,0.33499999999999996
mp-2028,Be2Nb,"Be, Nb",2,0.021783169523808432,Cubic,227,Fd-3m,0.0,False,True,0.014142135623730963
mp-695,TiCo2,"Co, Ti",2,0.050515650000001244,Cubic,227,Fd-3m,0.0,False,True,0.1602775370689507
mp-1400,HfW2,"Hf, W",2,0.0,Cubic,227,Fd-3m,0.0,False,True,0.4996887920384935
mp-568430,BaRh2,"Ba, Rh",2,0.0,Cubic,227,Fd-3m,0.0,False,True,0.6552522838995339
mp-23163,CsBi2,"Bi, Cs",2,0.0,Cubic,227,Fd-3m,0.0,False,True,0.5798275605729689
mp-570113,BiAu2,"Au, Bi",2,0.0,Cubic,227,Fd-3m,0.0,False,True,0.24513035081133647
mp-867501,Sc2Ni,"Ni, Sc",2,0.0,Cubic,227,Fd-3m,0.0,False,True,0.25927248643506734
mp-2762,YIr2,"Ir, Y",2,0.0,Cubic,227,Fd-3m,0.0,False,True,0.46197643037521113
mp-19871,PbAu2,"Au, Pb",2,0.004742635416668861,Cubic,227,Fd-3m,0.0,False,True,0.09899494936611664
mp-2295,CaNi2,"Ca, Ni",2,0.0,Cubic,227,Fd-3m,0.0,False,True,0.42897811391983875
mp-1077790,NbFe2,"Fe, Nb",2,0.0,Cubic,227,Fd-3m,0.0,True,True,0.10842303978193728
mp-1214412,Ba4Rh,"Ba, Rh",2,0.07086827450000088,Cubic,227,Fd-3m,0.0,True,True,0.5559999999999999
mp-1768,LaOs2,"La, Os",2,0.028733843888897326,Cubic,227,Fd-3m,0.0,False,True,0.5185449728701349
mp-30444,Be22W,"Be, W",2,0.017619141739129596,Cubic,227,Fd-3m,0.0,False,True,0.16110558479393514
mp-551,BaAl2,"Al, Ba",2,0.04432060651515091,Cubic,227,Fd-3m,0.0,False,True,0.33941125496954283
mp-318,SrIr2,"Ir, Sr",2,0.0,Cubic,227,Fd-3m,0.0,False,True,0.5892556509887897
mp-1019,YNi2,"Ni, Y",2,0.005393703529413152,Cubic,227,Fd-3m,0.0,False,True,0.3252691193458118
mp-1190626,Hf2Rh,"Hf, Rh",2,0.0,Cubic,227,Fd-3m,0.0,False,True,0.4619764303752109
mp-1190841,Hf2Co,"Co, Hf",2,0.07458956791666793,Cubic,227,Fd-3m,0.0,False,True,0.2734146220587983
mp-2694,LaAl2,"Al, La",2,0.0,Cubic,227,Fd-3m,0.0,False,True,0.24041630560342614
mp-1328,SrRh2,"Rh, Sr",2,0.0,Cubic,227,Fd-3m,0.0,False,True,0.626968012652072
mp-1294,YCo2,"Co, Y",2,0.0,Cubic,227,Fd-3m,0.0,False,True,0.31112698372208086
mp-1799,TaCo2,"Co, Ta",2,0.0417240186666632,Cubic,227,Fd-3m,0.0,False,True,0.179133717900592
mp-1638,SrAl2,"Al, Sr",2,0.013571949999999333,Cubic,227,Fd-3m,0.0,False,True,0.311126983722081
mp-833,CaPd2,"Ca, Pd",2,0.0,Cubic,227,Fd-3m,0.0,False,True,0.5656854249492381
mp-1191960,Zr2Pt,"Pt, Zr",2,0.010309776666666437,Cubic,227,Fd-3m,0.0,False,True,0.44783429475147996
mp-978269,MgZn2,"Mg, Zn",2,0.007595595000000399,Cubic,227,Fd-3m,0.0,True,True,0.1602775370689507
mp-670,NbCo2,"Co, Nb",2,0.01888244755555668,Cubic,227,Fd-3m,0.0,False,True,0.13199326582148876
mp-1718,ZrFe2,"Fe, Zr",2,0.0,Cubic,227,Fd-3m,0.0,False,True,0.23570226039551584
mp-18316,Mg2Pd,"Mg, Pd",2,0.00432952222222216,Cubic,227,Fd-3m,0.0,False,True,0.4195500235040182
mp-747,BaPt2,"Ba, Pt",2,0.0,Cubic,227,Fd-3m,0.0,False,True,0.6552522838995339
mp-540,ScFe2,"Fe, Sc",2,0.0,Cubic,227,Fd-3m,0.0,False,True,0.22156012477178488
mp-2263,ScIr2,"Ir, Sc",2,0.005982141666668994,Cubic,227,Fd-3m,0.0,False,True,0.3959797974644666
mp-1191437,Zr2Co,"Co, Zr",2,0.05912243416666385,Cubic,227,Fd-3m,0.0,False,True,0.25927248643506734
mp-912,LaPt2,"La, Pt",2,0.0,Cubic,227,Fd-3m,0.0,False,True,0.5562573345334172
mp-1564,NaTl,"Na, Tl",2,0.0,Cubic,227,Fd-3m,0.0,False,True,0.34500000000000003
mp-921,YRh2,"Rh, Y",2,0.0,Cubic,227,Fd-3m,0.0,False,True,0.4996887920384935
mp-1191415,Hf2Os,"Hf, Os",2,0.06007384625000611,Cubic,227,Fd-3m,0.0,False,True,0.42426406871192857
mp-675,ZrW2,"W, Zr",2,0.0,Cubic,227,Fd-3m,0.0,False,True,0.4855466564147625
mp-2031,Be2Cu,"Be, Cu",2,0.0,Cubic,227,Fd-3m,0.0,False,True,0.15556349186104038
mp-2676,TaBe2,"Be, Ta",2,0.035414196428571465,Cubic,227,Fd-3m,0.0,False,True,0.03299831645537224
mp-929,ZrCo2,"Co, Zr",2,0.03591941529411713,Cubic,227,Fd-3m,0.0,False,True,0.25927248643506734
mp-2363,HfMo2,"Hf, Mo",2,0.0,Cubic,227,Fd-3m,0.0,False,True,0.4054078878802873
mp-1201271,HfZn22,"Hf, Zn",2,0.008313229565217739,Cubic,227,Fd-3m,0.0,False,True,0.07137589199731303
mp-30764,LiPt2,"Li, Pt",2,0.04333288833333171,Cubic,227,Fd-3m,0.0,False,True,0.6128258770283411
mp-1463,LaIr2,"Ir, La",2,0.0,Cubic,227,Fd-3m,0.0,False,True,0.5185449728701349
mp-2019,LaRu2,"La, Ru",2,0.0017812852380956201,Cubic,227,Fd-3m,0.0,False,True,0.5185449728701349
mp-23279,KBi2,"Bi, K",2,0.0,Cubic,227,Fd-3m,0.0,False,True,0.565685424949238
mp-1187198,SrMg2,"Mg, Sr",2,0.006025296666666291,Cubic,227,Fd-3m,0.0,True,True,0.16970562748477144
mp-1702,LaRh2,"La, Rh",2,0.0,Cubic,227,Fd-3m,0.0,False,True,0.5562573345334172
mp-2116,ZrMn2,"Mn, Zr",2,0.0,Cubic,227,Fd-3m,0.0,True,True,0.10370899457402696
mp-16722,Al10V,"Al, V",2,0.023455367500000435,Cubic,227,Fd-3m,0.0,False,True,0.005749595745760631
mp-640781,K17In41,"In, K",2,0.0,Cubic,227,Fd-3m,0.0,False,True,0.43697805624642494
mp-1307,LiGa,"Ga, Li",2,0.0,Cubic,227,Fd-3m,0.0,False,True,0.41500000000000004
mp-22460,LiIn,"In, Li",2,0.0,Cubic,227,Fd-3m,0.0,False,True,0.4
mp-514,HfZn2,"Hf, Zn",2,0.0,Cubic,227,Fd-3m,0.0,False,True,0.16499158227686103
mp-1349,SrPt2,"Pt, Sr",2,0.0,Cubic,227,Fd-3m,0.0,False,True,0.626968012652072
mp-2271,NaPt2,"Na, Pt",2,0.0,Cubic,227,Fd-3m,0.0,False,True,0.6363961030678926
mp-850,ScNi2,"Ni, Sc",2,0.0,Cubic,227,Fd-3m,0.0,False,True,0.25927248643506734
mp-570436,CaIr2,"Ca, Ir",2,0.0,Cubic,227,Fd-3m,0.0,False,True,0.5656854249492381
mp-1038,MgCu2,"Cu, Mg",2,0.0,Cubic,227,Fd-3m,0.0,False,True,0.2781286672667086
mp-2322,YAl2,"Al, Y",2,0.0,Cubic,227,Fd-3m,0.0,False,True,0.1838477631085024
mp-2337,HfCo2,"Co, Hf",2,0.0238117552941155,Cubic,227,Fd-3m,0.0,False,True,0.2734146220587983
mp-2404,CaAl2,"Al, Ca",2,0.0,Cubic,227,Fd-3m,0.0,False,True,0.28755675768252936
mp-20628,NaIn,"In, Na",2,0.0,Cubic,227,Fd-3m,0.0,False,True,0.425
mp-2749,TiBe2,"Be, Ti",2,0.0,Cubic,227,Fd-3m,0.0,False,True,0.014142135623730963
mp-1072382,YZn2,"Y, Zn",2,0.022645084999998844,Cubic,227,Fd-3m,0.0,True,True,0.2027039439401436
mp-17682,Zr2Fe,"Fe, Zr",2,0.06347475358333554,Cubic,227,Fd-3m,0.0,False,True,0.23570226039551584
mp-569364,Be22Re,"Be, Re",2,0.0,Cubic,227,Fd-3m,0.0,False,True,0.06729726959746657
mp-715,ZrIr2,"Ir, Zr",2,0.07824746874999988,Cubic,227,Fd-3m,0.0,False,True,0.4101219330881976
mp-1043,HfV2,"Hf, V",2,0.06383660500000232,Cubic,227,Fd-3m,0.0,False,True,0.15556349186104038
mp-11644,Li2Ca,"Ca, Li",2,0.004267985833332766,Cubic,227,Fd-3m,0.0,False,True,0.009428090415820642
mp-985556,CdNi,"Cd, Ni",2,0.006270499166667776,Cubic,227,Fd-3m,0.0,False,True,0.10999999999999999
mp-2708,LaNi2,"La, Ni",2,0.023639428888890812,Cubic,227,Fd-3m,0.0,False,True,0.3818376618407356
mp-1191706,Zr2Ir,"Ir, Zr",2,0.048450425555557786,Cubic,227,Fd-3m,0.0,False,True,0.4101219330881976
mp-30708,HfNi2,"Hf, Ni",2,0.04818357683333474,Cubic,227,Fd-3m,0.0,False,True,0.28755675768252925
mp-2385,TaCr2,"Cr, Ta",2,0.05987628922222399,Cubic,227,Fd-3m,0.0,False,True,0.07542472332656502
mp-603,Be2Ag,"Ag, Be",2,0.02972060444444491,Cubic,227,Fd-3m,0.0,False,True,0.16970562748477133
mp-1067,LiAl,"Al, Li",2,0.0,Cubic,227,Fd-3m,0.0,False,True,0.31500000000000006
mp-1192216,Ti2Fe,"Fe, Ti",2,0.06568317513888644,Cubic,227,Fd-3m,0.0,False,True,0.1367073110293992
mp-1247744,BaNa,"Ba, Na",2,0.0,Cubic,227,Fd-3m,0.08789999999999987,True,False,0.020000000000000018
mp-842,CaPt2,"Ca, Pt",2,0.0,Cubic,227,Fd-3m,0.0,False,True,0.6033977866125204
mp-1808,Ti2Ni,"Ni, Ti",2,0.0,Cubic,227,Fd-3m,0.0,False,True,0.17441967269268166
mp-819,HfCr2,"Cr, Hf",2,0.08468114333333077,Cubic,227,Fd-3m,0.0,False,True,0.16970562748477133
mp-1191460,HfMn,"Hf, Mn",2,0.009430611875000494,Cubic,227,Fd-3m,0.0,False,True,0.125
mp-253,ScCo2,"Co, Sc",2,0.0,Cubic,227,Fd-3m,0.0,False,True,0.24513035081133638
mp-1190654,Hf2Pd,"Hf, Pd",2,0.08495123416666672,Cubic,227,Fd-3m,0.0,False,True,0.42426406871192857
mp-1558,SrPd2,"Pd, Sr",2,0.0,Cubic,227,Fd-3m,0.0,False,True,0.5892556509887897
mp-583800,Zr2Cu,"Cu, Zr",2,0.06509884291666612,Cubic,227,Fd-3m,0.0,False,True,0.268700576850888
mp-510430,Li13In3,"In, Li",2,0.0,Cubic,227,Fd-3m,0.0,False,True,0.3122498999199199
mp-813,ScAl2,"Al, Sc",2,0.0,Cubic,227,Fd-3m,0.0,False,True,0.11785113019775792
mp-1052,NaAu2,"Au, Na",2,0.0,Cubic,227,Fd-3m,0.0,False,True,0.7589612784735609
mp-1191331,Ti2Co,"Co, Ti",2,0.06680302319444387,Cubic,227,Fd-3m,0.0,False,True,0.1602775370689507
mp-1192264,Ti2Cu,"Cu, Ti",2,0.09259994583333508,Cubic,227,Fd-3m,0.0,False,True,0.16970562748477133
mp-30888,ZrZn22,"Zn, Zr",2,0.011539984782610091,Cubic,227,Fd-3m,0.0,False,True,0.06525795839754334
mp-1437,LiCd,"Cd, Li",2,0.0,Cubic,227,Fd-3m,0.0,False,True,0.355
mp-1187860,YMg2,"Mg, Y",2,0.008698931666667242,Cubic,227,Fd-3m,0.0,True,True,0.04242640687119289
mp-2250,ZrNi2,"Ni, Zr",2,0.04556328583333169,Cubic,227,Fd-3m,0.0,False,True,0.2734146220587983
mp-542488,MgCo,"Co, Mg",2,0.02819130458333241,Cubic,227,Fd-3m,0.0,False,True,0.2849999999999999
mp-567276,TaV2,"Ta, V",2,0.0,Cubic,227,Fd-3m,0.0,False,True,0.06128258770283407
mp-1190979,Sc2Ir,"Ir, Sc",2,0.034591713511905375,Cubic,227,Fd-3m,0.0,False,True,0.3959797974644666
mp-1401,ZrZn2,"Zn, Zr",2,0.0,Cubic,227,Fd-3m,0.0,False,True,0.15084944665313005
mp-1909,LaMg2,"La, Mg",2,0.002472620833335437,Cubic,227,Fd-3m,0.0,False,True,0.09899494936611664
mp-1190862,Sc2Pd,"Pd, Sc",2,0.0,Cubic,227,Fd-3m,0.0,False,True,0.3959797974644666
mp-2674,YPt2,"Pt, Y",2,0.0,Cubic,227,Fd-3m,0.0,False,True,0.4996887920384935
mp-1570,YFe2,"Fe, Y",2,0.0,Cubic,227,Fd-3m,0.0,False,True,0.28755675768252936
mp-1185705,MgNi2,"Mg, Ni",2,0.004170157500000826,Cubic,227,Fd-3m,0.0,True,True,0.28284271247461895
mp-30440,Be22Mo,"Be, Mo",2,0.019973116956521153,Cubic,227,Fd-3m,0.0,False,True,0.1203193607954706
mp-1687,BaPd2,"Ba, Pd",2,0.0,Cubic,227,Fd-3m,0.0,False,True,0.6175399222362515
mp-258,ZrV2,"V, Zr",2,0.08338467000000094,Cubic,227,Fd-3m,0.0,False,True,0.14142135623730942
mp-1077429,NbNi2,"Nb, Ni",2,0.08764159577777964,Cubic,227,Fd-3m,0.0,True,True,0.14613540144521975
mp-1192157,Hf2Mn,"Hf, Mn",2,0.0,Cubic,227,Fd-3m,0.0,False,True,0.11785113019775792
mp-2049,ZrMo2,"Mo, Zr",2,0.0,Cubic,227,Fd-3m,0.0,False,True,0.39126575225655635
mp-333,HfFe2,"Fe, Hf",2,0.0,Cubic,227,Fd-3m,0.0,False,True,0.2498443960192468
mp-1183430,CaMg2,"Ca, Mg",2,0.0017381949999997204,Cubic,227,Fd-3m,0.0,True,True,0.14613540144521983
mp-23253,RbBi2,"Bi, Rb",2,0.0,Cubic,227,Fd-3m,0.0,False,True,0.565685424949238
mp-571262,CaRh2,"Ca, Rh",2,0.0,Cubic,227,Fd-3m,0.0,False,True,0.6033977866125204
mp-2754,Hf2Fe,"Fe, Hf",2,0.0,Cubic,227,Fd-3m,0.0,False,True,0.2498443960192468
mp-1187695,V3Cr,"Cr, V",2,0.04518707499999941,Cubic,225,Fm-3m,0.0,True,True,0.012990381056766592
mp-866134,VFe3,"Fe, V",2,0.0,Cubic,225,Fm-3m,0.0,True,True,0.08660254037844395
mp-1187206,Ta3W,"Ta, W",2,0.0,Cubic,225,Fm-3m,0.0,True,True,0.3723909236273086
mp-1018067,CrFe3,"Cr, Fe",2,0.06367412500000036,Cubic,225,Fm-3m,0.0,True,True,0.07361215932167735
mp-568512,Ba6Mg23,"Ba, Mg",2,0.0,Cubic,225,Fm-3m,0.0,False,True,0.170133891457852
mp-1187539,Tl3Ga,"Ga, Tl",2,0.09724636562500422,Cubic,225,Fm-3m,0.0,True,True,0.08227241335952165
mp-1187155,SrCa3,"Ca, Sr",2,0.03869834999999888,Cubic,225,Fm-3m,0.0,True,True,0.021650635094610987
mp-568516,K3Bi,"Bi, K",2,0.014359646250001301,Cubic,225,Fm-3m,0.12860000000000005,False,False,0.5196152422706632
mp-1183987,GaHg3,"Ga, Hg",2,0.06922385937500053,Cubic,225,Fm-3m,0.0,True,True,0.08227241335952165
mp-1646,Li3Hg,"Hg, Li",2,0.0012975900000000706,Cubic,225,Fm-3m,0.0,False,True,0.4416729559300637
mp-672232,AlNi3,"Al, Ni",2,0.07205002999999977,Cubic,225,Fm-3m,0.0,True,True,0.12990381056766573
mp-865077,NaCd3,"Cd, Na",2,0.0015907350000006204,Cubic,225,Fm-3m,0.0,True,True,0.32908965343808666
mp-973143,ScZn3,"Sc, Zn",2,0.01924412249999996,Cubic,225,Fm-3m,0.0,True,True,0.12557368354874351
mp-672661,GaFe3,"Fe, Ga",2,0.03586805500000079,Cubic,225,Fm-3m,0.0,False,True,0.008660254037844395
mp-1185235,Li3Rh,"Li, Rh",2,0.07196978666666709,Cubic,225,Fm-3m,0.04939999999999989,True,False,0.562916512459885
mp-1185541,CsNa3,"Cs, Na",2,0.08245365060344767,Cubic,225,Fm-3m,0.0,True,True,0.06062177826491071
mp-2306,LaMg3,"La, Mg",2,0.0,Cubic,225,Fm-3m,0.0,False,True,0.09093266739736605
mp-865875,Li3Ag,"Ag, Li",2,0.0,Cubic,225,Fm-3m,0.0,True,True,0.41136206679760834
mp-999550,Mn3Ga,"Ga, Mn",2,0.08622319603448148,Cubic,225,Fm-3m,0.0,True,True,0.11258330249197704
mp-973824,LiHg3,"Hg, Li",2,0.025750848750000443,Cubic,225,Fm-3m,0.0,True,True,0.4416729559300637
mp-977189,Na3Bi,"Bi, Na",2,0.01568028999999882,Cubic,225,Fm-3m,0.0,True,True,0.47198384506251906
mp-974309,In3Ga,"Ga, In",2,0.07382693749999802,Cubic,225,Fm-3m,0.0,True,True,0.012990381056766592
mp-976113,LaAu3,"Au, La",2,0.03713212168478375,Cubic,225,Fm-3m,0.0,True,True,0.6235382907247957
mp-865899,Ti3Os,"Os, Ti",2,0.0,Cubic,225,Fm-3m,0.0,True,True,0.2857883832488648
mp-985806,Al2Cu,"Al, Cu",2,0.0,Cubic,225,Fm-3m,0.0,True,True,0.1367073110293991
mp-1186977,ScAu3,"Au, Sc",2,0.07420115249999526,Cubic,225,Fm-3m,0.0,True,True,0.5109549882328188
mp-1184254,GaPd3,"Ga, Pd",2,0.0634394890000003,Cubic,225,Fm-3m,0.0,True,True,0.16887495373796557
mp-30765,LiPt7,"Li, Pt",2,0.0,Cubic,225,Fm-3m,0.0,False,True,0.4299345880479959
mp-1186142,NaHg3,"Hg, Na",2,0.01543039375000177,Cubic,225,Fm-3m,0.0,True,True,0.46332359102467463
mp-1007853,Fe3Ni,"Fe, Ni",2,0.05910454999999981,Cubic,225,Fm-3m,0.0,True,True,0.034641016151377484
mp-11489,Li3Pd,"Li, Pd",2,0.007513318035715422,Cubic,225,Fm-3m,0.0,False,True,0.5282754963085077
mp-865385,V3Re,"Re, V",2,0.0,Cubic,225,Fm-3m,0.0,True,True,0.11691342951089922
mp-867227,Li3Pt,"Li, Pt",2,0.008406470833334012,Cubic,225,Fm-3m,0.0,True,True,0.562916512459885
mp-1185924,Mn3Re,"Mn, Re",2,0.05981454530172314,Cubic,225,Fm-3m,0.0,True,True,0.15155444566227672
mp-1009756,Ca2Pb,"Ca, Pb",2,0.014137890833334943,Cubic,225,Fm-3m,0.6495000000000002,True,False,0.6269680126520721
mp-1192854,Y6Zn23,"Y, Zn",2,0.01656064336206775,Cubic,225,Fm-3m,0.0,False,True,0.17418469839732462
mp-865907,LiZn3,"Li, Zn",2,0.0,Cubic,225,Fm-3m,0.0,True,True,0.2901185102677869
mp-19962,Sn2Pt,"Pt, Sn",2,0.0,Cubic,225,Fm-3m,0.0,False,True,0.15084944665313005
mp-1186018,Na3Au,"Au, Na",2,0.043165679999997764,Cubic,225,Fm-3m,0.0,True,True,0.6971504500464731
mp-1194143,Sc11Ru4,"Ru, Sc",2,0.0,Cubic,225,Fm-3m,0.0,False,True,0.37146197651980484
mp-642322,Sr11In7,"In, Sr",2,0.008803466245913771,Cubic,225,Fm-3m,0.0,False,True,0.40462335786308123
mp-1187152,SrCd3,"Cd, Sr",2,0.04993003838541621,Cubic,225,Fm-3m,0.0,True,True,0.3204293994002423
mp-838,Cu3Sn,"Cu, Sn",2,0.0735731599999987,Cubic,225,Fm-3m,0.0,False,True,0.025980762113533184
mp-1184921,In3Pb,"In, Pb",2,0.06557534250000074,Cubic,225,Fm-3m,0.0,True,True,0.23815698604072066
mp-976023,Li3Ga,"Ga, Li",2,0.021047610833333508,Cubic,225,Fm-3m,0.0,True,True,0.35940054257054205
mp-999389,NbFe3,"Fe, Nb",2,0.05140361999999854,Cubic,225,Fm-3m,0.0,True,True,0.09959292143521044
mp-1183324,BaSr3,"Ba, Sr",2,0.015435395000000351,Cubic,225,Fm-3m,0.0,True,True,0.025980762113533135
mp-1192795,Hf6Co23,"Co, Hf",2,0.0,Cubic,225,Fm-3m,0.0,False,True,0.23494680248941455
mp-30641,Y6Fe23,"Fe, Y",2,0.009851046551723641,Cubic,225,Fm-3m,0.0,False,True,0.24709922330783265
mp-998979,Ti3In,"In, Ti",2,0.09522677999999907,Cubic,225,Fm-3m,0.0,True,True,0.10392304845413264
mp-644500,Zn7Mo,"Mo, Zn",2,0.025753753124998724,Cubic,225,Fm-3m,0.0,False,True,0.16866664608036774
mp-30482,Ca3Tl,"Ca, Tl",2,0.0680144949999999,Cubic,225,Fm-3m,0.0,False,True,0.26846787517317605
mp-1183471,CaAg3,"Ag, Ca",2,0.07972769499999899,Cubic,225,Fm-3m,0.0,True,True,0.4027018127597639
mp-23241,YBi,"Bi, Y",2,0.0,Cubic,225,Fm-3m,0.0,False,True,0.4
mp-982246,PbAu3,"Au, Pb",2,0.081645635000001,Cubic,225,Fm-3m,0.0,True,True,0.09093266739736605
mp-30760,Li3Pb,"Li, Pb",2,0.0019604210000014888,Cubic,225,Fm-3m,0.0,False,True,0.5845671475544961
mp-974058,LiCu3,"Cu, Li",2,0.02556148999999941,Cubic,225,Fm-3m,0.0,True,True,0.3983716857408417
mp-971744,ZnCo3,"Co, Zn",2,0.07570645852272762,Cubic,225,Fm-3m,0.0,True,True,0.09959292143521044
mp-30569,Zr6Co23,"Co, Zr",2,0.0,Cubic,225,Fm-3m,0.0,False,True,0.22279438167099652
mp-2083,Sn2Ir,"Ir, Sn",2,0.0,Cubic,225,Fm-3m,0.0,False,True,0.1131370849898477
mp-867226,Li3In,"In, Li",2,0.005150574464284574,Cubic,225,Fm-3m,0.0,True,True,0.34641016151377546
mp-1206378,Zn7Tc,"Tc, Zn",2,0.0,Cubic,225,Fm-3m,0.0,True,True,0.08267972847076846
mp-1094244,Mg3Sn,"Mg, Sn",2,0.09078888624999948,Cubic,225,Fm-3m,0.0,True,True,0.2814582562299425
mp-11247,Li3Au,"Au, Li",2,0.0,Cubic,225,Fm-3m,0.0,False,True,0.6754998149518622
mp-1187196,Ta3Ir,"Ir, Ta",2,0.0,Cubic,225,Fm-3m,0.0,True,True,0.3031088913245536
mp-1184236,GaSn3,"Ga, Sn",2,0.07891876937499731,Cubic,225,Fm-3m,0.0,True,True,0.06495190528383286
mp-972071,V3Mo,"Mo, V",2,0.0,Cubic,225,Fm-3m,0.0,True,True,0.22949673200287635
mp-582924,Zr6Fe23,"Fe, Zr",2,0.007645919655173472,Cubic,225,Fm-3m,0.0,False,True,0.2025403469736333
mp-16522,Al2Pd,"Al, Pd",2,0.03568099574073891,Cubic,225,Fm-3m,0.0,False,True,0.2781286672667087
mp-1184364,Fe3Rh,"Fe, Rh",2,0.0,Cubic,225,Fm-3m,0.0,True,True,0.19485571585149858
mp-20724,Mg2Pb,"Mg, Pb",2,0.0,Cubic,225,Fm-3m,0.0,False,True,0.4808326112068523
mp-1038778,Sn3Bi,"Bi, Sn",2,0.07780466375000072,Cubic,225,Fm-3m,0.0,True,True,0.025980762113533184
mp-1094633,Mg3Ga,"Ga, Mg",2,0.08637813999999944,Cubic,225,Fm-3m,0.0,True,True,0.21650635094610965
mp-22682,In2Pt,"In, Pt",2,0.0,Cubic,225,Fm-3m,0.0,False,True,0.23570226039551573
mp-1063314,Ca2Rh,"Ca, Rh",2,0.062295558333332224,Cubic,225,Fm-3m,0.0,False,True,0.6033977866125205
mp-1187197,Ta3Os,"Os, Ta",2,0.0,Cubic,225,Fm-3m,0.0,True,True,0.3031088913245536
mp-866121,V3Os,"Os, V",2,0.0,Cubic,225,Fm-3m,0.0,True,True,0.24681724007856512
mp-30474,Ca11Ga7,"Ca, Ga",2,0.0032964504575154763,Cubic,225,Fm-3m,0.0,False,True,0.39487339743264555
mp-1185554,CsK3,"Cs, K",2,0.016542448750000105,Cubic,225,Fm-3m,0.0,True,True,0.012990381056766543
mp-865176,HfCu3,"Cu, Hf",2,0.0739975925762213,Cubic,225,Fm-3m,0.0,True,True,0.25980762113533157
mp-976412,Li3Zn,"Li, Zn",2,0.027654085416666696,Cubic,225,Fm-3m,0.0,True,True,0.2901185102677869
mp-1187107,Sr3Ca,"Ca, Sr",2,0.05711801499999858,Cubic,225,Fm-3m,0.0,True,True,0.021650635094610987
mp-1185559,CsRb3,"Cs, Rb",2,0.007330274461205821,Cubic,225,Fm-3m,0.0,True,True,0.012990381056766543
mp-2272,Sr6Li23,"Li, Sr",2,0.006392339243798784,Cubic,225,Fm-3m,0.0,False,True,0.012152420818418008
mp-23222,Li3Bi,"Bi, Li",2,0.0,Cubic,225,Fm-3m,0.34289999999999976,False,False,0.45033320996790815
mp-1094666,Mg3Al,"Al, Mg",2,0.07658508552083365,Cubic,225,Fm-3m,0.0,True,True,0.1299038105676658
mp-1183639,CdHg3,"Cd, Hg",2,0.03666429437500085,Cubic,225,Fm-3m,0.0,True,True,0.13423393758658803
mp-974641,K3Tl,"K, Tl",2,0.08290952072321445,Cubic,225,Fm-3m,0.0,True,True,0.3464101615137755