material_id,formula,elements,num_elements,energy_above_hull,crystal_system,spacegroup_number,spacegroup_symbol,band_gap,theoretical,is_metal,electronegativity_difference
mp-982780,K3Cd,"Cd, K",2,0.05621038273437584,Cubic,221,Pm-3m,0.0,True,True,0.37672105064623085
mp-863720,HgPd3,"Hg, Pd",2,0.022062829999999423,Cubic,221,Pm-3m,0.0,True,True,0.08660254037844395
mp-1018029,CuPd,"Cu, Pd",2,0.0,Cubic,221,Pm-3m,0.0,False,True,0.15000000000000013
mp-21289,TiZn3,"Ti, Zn",2,0.006043867499998079,Cubic,221,Pm-3m,0.0,False,True,0.04763139720814407
mp-983590,Be3Fe,"Be, Fe",2,0.0,Cubic,221,Pm-3m,0.0,True,True,0.11258330249197702
mp-1187502,Tl3Bi,"Bi, Tl",2,0.011970042499996225,Cubic,221,Pm-3m,0.0,True,True,0.1732050807568877
mp-21162,SrPb3,"Pb, Sr",2,0.0,Cubic,221,Pm-3m,0.0,False,True,0.5975575286112627
mp-1063661,MgNi3,"Mg, Ni",2,0.09358975781249956,Cubic,221,Pm-3m,0.0,False,True,0.25980762113533157
mp-2444,GaRh,"Ga, Rh",2,0.0,Cubic,221,Pm-3m,0.0,False,True,0.23499999999999988
mp-975019,Rb3Cd,"Cd, Rb",2,0.06653064298076927,Cubic,221,Pm-3m,0.0,True,True,0.37672105064623085
mp-899,InRh,"In, Rh",2,0.0,Cubic,221,Pm-3m,0.0,False,True,0.2499999999999999
mp-984717,BeNi3,"Be, Ni",2,0.07291103249999953,Cubic,221,Pm-3m,0.0,True,True,0.1472243186433545
mp-1186032,Na3Ca,"Ca, Na",2,0.08869919508620683,Cubic,221,Pm-3m,0.0,True,True,0.030310889132455332
mp-12065,Ag3Pt,"Ag, Pt",2,0.020805422500000503,Cubic,221,Pm-3m,0.0,False,True,0.15155444566227672
mp-1089,TiIr3,"Ir, Ti",2,0.0,Cubic,221,Pm-3m,0.0,False,True,0.2857883832488648
mp-1187105,Sr3Ca,"Ca, Sr",2,0.039014964999998014,Cubic,221,Pm-3m,0.0,True,True,0.021650635094610987
mp-18695,Fe15Co,"Co, Fe",2,0.0009856337500000478,Cubic,221,Pm-3m,0.0,True,True,0.012103072956898135
mp-1017543,ZrPd3,"Pd, Zr",2,0.025105371249999564,Cubic,221,Pm-3m,0.0,True,True,0.37672105064623085
mp-1185041,KHg3,"Hg, K",2,0.04081182916665682,Cubic,221,Pm-3m,0.0,True,True,0.5109549882328188
mp-12585,CrRh3,"Cr, Rh",2,0.0,Cubic,221,Pm-3m,0.0,False,True,0.26846787517317594
mp-11457,HfRh,"Hf, Rh",2,0.0,Cubic,221,Pm-3m,0.0,False,True,0.4899999999999999
mp-1339,NbIr3,"Ir, Nb",2,0.002251210000004278,Cubic,221,Pm-3m,0.0,False,True,0.2598076211353316
mp-1094849,MgGa,"Ga, Mg",2,0.022138305000000358,Cubic,221,Pm-3m,0.0,True,True,0.25
mp-2642,CdAg,"Ag, Cd",2,0.0,Cubic,221,Pm-3m,0.0,False,True,0.12
mp-284,AlCo,"Al, Co",2,0.0,Cubic,221,Pm-3m,0.0,False,True,0.1349999999999999
mp-10890,LiAl3,"Al, Li",2,0.0109495750000006,Cubic,221,Pm-3m,0.0,False,True,0.2727980021920982
mp-1008555,AlCu3,"Al, Cu",2,0.008516517500000376,Cubic,221,Pm-3m,0.0,True,True,0.12557368354874351
mp-1121,GaCo,"Co, Ga",2,0.0,Cubic,221,Pm-3m,0.0,False,True,0.03499999999999992
mp-1039147,CaZn,"Ca, Zn",2,0.026159390000000116,Cubic,221,Pm-3m,0.0,True,True,0.32499999999999996
mp-1183687,CoPd3,"Co, Pd",2,0.0016408749999961003,Cubic,221,Pm-3m,0.0,True,True,0.13856406460551032
mp-1094839,MgCd3,"Cd, Mg",2,0.018096665416667435,Cubic,221,Pm-3m,0.0,True,True,0.1645448267190433
mp-2515,CrPt3,"Cr, Pt",2,0.0,Cubic,221,Pm-3m,0.0,False,True,0.26846787517317594
mp-863750,AgAu3,"Ag, Au",2,0.0,Cubic,221,Pm-3m,0.0,True,True,0.26413774815425384
mp-1038934,MgAl,"Al, Mg",2,0.09022261874999993,Cubic,221,Pm-3m,0.0,True,True,0.15000000000000002
mp-1471,Zr3Al,"Al, Zr",2,0.0,Cubic,221,Pm-3m,0.0,False,True,0.12124355652982143
mp-1183698,Co3Ir,"Co, Ir",2,0.0508543437500002,Cubic,221,Pm-3m,0.0,True,True,0.13856406460551032
mp-11452,HfOs,"Hf, Os",2,0.0,Cubic,221,Pm-3m,0.0,False,True,0.45000000000000007
mp-2314,LiPb,"Li, Pb",2,0.0,Cubic,221,Pm-3m,0.0,False,True,0.675
mp-30496,SrCd,"Cd, Sr",2,0.0,Cubic,221,Pm-3m,0.0,False,True,0.37
mp-983594,Al3Ga,"Al, Ga",2,0.043444177500000514,Cubic,221,Pm-3m,0.0,True,True,0.08660254037844385
mp-31337,InPd3,"In, Pd",2,0.031658931249999966,Cubic,221,Pm-3m,0.0,False,True,0.1818653347947322
mp-1183137,Ag3Au,"Ag, Au",2,0.0,Cubic,221,Pm-3m,0.0,True,True,0.26413774815425384
mp-11471,ScHg,"Hg, Sc",2,0.0,Cubic,221,Pm-3m,0.0,False,True,0.31999999999999995
mp-1184703,Hf3Pb,"Hf, Pb",2,0.019860790000002737,Cubic,221,Pm-3m,0.0,True,True,0.44600308294898594
mp-7753,MgPd3,"Mg, Pd",2,0.01137175124999068,Cubic,221,Pm-3m,0.0,False,True,0.3853813046840752
mp-2434,SrTl,"Sr, Tl",2,0.0,Cubic,221,Pm-3m,0.0,False,True,0.3350000000000001
mp-1395,VRu,"Ru, V",2,0.0,Cubic,221,Pm-3m,0.0,False,True,0.28500000000000014
mp-1094855,La3Mg,"La, Mg",2,0.04349490875000139,Cubic,221,Pm-3m,0.0,True,True,0.09093266739736605
mp-417,MnRh,"Mn, Rh",2,0.0,Cubic,221,Pm-3m,0.0,False,True,0.3649999999999999
mp-11229,YAl,"Al, Y",2,0.030594507500000034,Cubic,221,Pm-3m,0.0,False,True,0.19500000000000006
mp-1017529,VCo3,"Co, V",2,0.087322275,Cubic,221,Pm-3m,0.0,True,True,0.10825317547305482
mp-976589,NaIn3,"In, Na",2,0.0,Cubic,221,Pm-3m,0.0,True,True,0.3680607966083864
mp-976599,LiHg3,"Hg, Li",2,0.029448351250003668,Cubic,221,Pm-3m,0.0,True,True,0.4416729559300637
mp-1187913,ZnPd3,"Pd, Zn",2,0.02884696312500079,Cubic,221,Pm-3m,0.0,True,True,0.23815698604072075
mp-1183621,Cd3Pd,"Cd, Pd",2,0.04429121256756874,Cubic,221,Pm-3m,0.0,True,True,0.22083647796503195
mp-1184558,Hf3Sn,"Hf, Sn",2,0.021194234166664216,Cubic,221,Pm-3m,0.0,True,True,0.28578838324886474
mp-30373,RbAu,"Au, Rb",2,0.0,Cubic,221,Pm-3m,0.3698999999999999,False,False,0.86
mp-11503,MnZn,"Mn, Zn",2,0.0832009423563207,Cubic,221,Pm-3m,0.0,False,True,0.04999999999999993
mp-11578,VZn3,"V, Zn",2,0.0,Cubic,221,Pm-3m,0.0,False,True,0.008660254037844393
mp-1918,FeRh,"Fe, Rh",2,0.0,Cubic,221,Pm-3m,0.0,False,True,0.22499999999999987
mp-1183501,Ca3Cd,"Ca, Cd",2,0.056827950312499764,Cubic,221,Pm-3m,0.0,True,True,0.2987787643056313
mp-11575,YTl,"Tl, Y",2,0.0,Cubic,221,Pm-3m,0.0,False,True,0.20000000000000007
mp-2757,CdAu,"Au, Cd",2,0.011665960555554022,Cubic,221,Pm-3m,0.0,False,True,0.42500000000000004
mp-11364,TiCu,"Cu, Ti",2,0.0826696000000009,Cubic,221,Pm-3m,0.0,True,True,0.17999999999999994
mp-1022721,AlCu,"Al, Cu",2,0.07406123800000053,Cubic,221,Pm-3m,0.0,True,True,0.1449999999999999
mp-265,TaIr3,"Ir, Ta",2,0.0,Cubic,221,Pm-3m,0.0,False,True,0.3031088913245536
mp-1094768,MgZr3,"Mg, Zr",2,0.01926654624999813,Cubic,221,Pm-3m,0.0,True,True,0.008660254037844395
mp-30746,YIr,"Ir, Y",2,0.0,Cubic,221,Pm-3m,0.0,False,True,0.4900000000000001
mp-1018054,HfPt3,"Hf, Pt",2,0.007669869374979044,Cubic,221,Pm-3m,0.0,True,True,0.42435244785437487
mp-1018021,NbCo3,"Co, Nb",2,0.01716544249999785,Cubic,221,Pm-3m,0.0,True,True,0.12124355652982133
mp-1183130,Al3Ag,"Ag, Al",2,0.0712581868749993,Cubic,221,Pm-3m,0.0,True,True,0.1385640646055101
mp-1186970,Sc3Sn,"Sc, Sn",2,0.005275915000000353,Cubic,221,Pm-3m,0.0,True,True,0.25980762113533157
mp-1094857,Ca3Mg,"Ca, Mg",2,0.028335638124999507,Cubic,221,Pm-3m,0.0,True,True,0.13423393758658803
mp-12107,TiPt3,"Pt, Ti",2,0.004863833214280078,Cubic,221,Pm-3m,0.0,False,True,0.3204293994002422
mp-829,AlPd,"Al, Pd",2,0.037793284999999344,Cubic,221,Pm-3m,0.0,False,True,0.29500000000000004
mp-2802,HfRu,"Hf, Ru",2,0.0,Cubic,221,Pm-3m,0.0,False,True,0.45000000000000007
mp-1008349,Co3Ni,"Co, Ni",2,0.01565101874999897,Cubic,221,Pm-3m,0.0,True,True,0.012990381056766592
mp-1487,AlNi,"Al, Ni",2,0.0,Cubic,221,Pm-3m,0.0,False,True,0.1499999999999999
mp-1184209,GaPd3,"Ga, Pd",2,0.05688534149999924,Cubic,221,Pm-3m,0.0,True,True,0.16887495373796557
mp-12674,MnAu,"Au, Mn",2,0.0,Cubic,221,Pm-3m,0.0,False,True,0.495
mp-12593,ScIr3,"Ir, Sc",2,0.0,Cubic,221,Pm-3m,0.0,False,True,0.36373066958946426
mp-11286,CaHg,"Ca, Hg",2,0.0,Cubic,221,Pm-3m,0.0,False,True,0.5
mp-977585,Zr3Tl,"Tl, Zr",2,0.0,Cubic,221,Pm-3m,0.0,True,True,0.12557368354874363
mp-1188008,Zr3Ga,"Ga, Zr",2,0.043778628749997495,Cubic,221,Pm-3m,0.0,True,True,0.20784609690826528
mp-1187638,Tl3In,"In, Tl",2,0.05327636250000012,Cubic,221,Pm-3m,0.0,True,True,0.06928203230275505
mp-570691,Ti3Sn,"Sn, Ti",2,0.03354331625000029,Cubic,221,Pm-3m,0.0,False,True,0.1818653347947321
mp-1187532,Tl3Au,"Au, Tl",2,0.07487485250000248,Cubic,221,Pm-3m,0.0,True,True,0.3983716857408417
mp-1183967,GaAg3,"Ag, Ga",2,0.0428271695833331,Cubic,221,Pm-3m,0.0,True,True,0.05196152422706627
mp-2677,ScPd3,"Pd, Sc",2,0.0,Cubic,221,Pm-3m,0.0,False,True,0.36373066958946426
mp-12778,VOs,"Os, V",2,0.0,Cubic,221,Pm-3m,0.0,False,True,0.28500000000000014
mp-1912,ZnAg,"Ag, Zn",2,0.0,Cubic,221,Pm-3m,0.0,False,True,0.14
mp-1129,ScIr,"Ir, Sc",2,0.0,Cubic,221,Pm-3m,0.0,False,True,0.42000000000000004
mp-981390,HgBi3,"Bi, Hg",2,0.09012482687499812,Cubic,221,Pm-3m,0.0,True,True,0.008660254037844395
mp-2560,Ti3Hg,"Hg, Ti",2,0.07098824124999936,Cubic,221,Pm-3m,0.0,False,True,0.19918584287042085
mp-1033,BeNi,"Be, Ni",2,0.0,Cubic,221,Pm-3m,0.0,False,True,0.16999999999999993
mp-371,La3Tl,"La, Tl",2,0.0,Cubic,221,Pm-3m,0.0,False,True,0.22516660498395405
mp-11279,TiBe,"Be, Ti",2,0.005038837916666594,Cubic,221,Pm-3m,0.0,False,True,0.015000000000000013
mp-364,AlRh,"Al, Rh",2,0.0,Cubic,221,Pm-3m,0.0,False,True,0.33499999999999985
mp-1014230,TiZn,"Ti, Zn",2,0.0,Cubic,221,Pm-3m,0.0,True,True,0.05499999999999994
mp-20909,La3In,"In, La",2,0.0,Cubic,221,Pm-3m,0.0,False,True,0.2944486372867091
mp-568711,VPd3,"Pd, V",2,0.0,Cubic,221,Pm-3m,0.0,False,True,0.24681724007856512
mp-1103521,Sr8Rh5,"Rh, Sr",2,0.06306937846153815,Cubic,221,Pm-3m,0.0,False,True,0.6470506596959914
mp-1183627,CdAg3,"Ag, Cd",2,0.007372807499997691,Cubic,221,Pm-3m,0.0,True,True,0.10392304845413264
mp-11572,TaTc,"Ta, Tc",2,0.0,Cubic,221,Pm-3m,0.0,False,True,0.19999999999999996
mp-10889,La3Al,"Al, La",2,0.04054629000000176,Cubic,221,Pm-3m,0.0,False,True,0.22083647796503186
mp-1600,BaHg11,"Ba, Hg",2,0.023561886180550773,Cubic,221,Pm-3m,0.0,False,True,0.3067877931078745
mp-953,NbZn3,"Nb, Zn",2,0.0,Cubic,221,Pm-3m,0.0,False,True,0.021650635094610887
mp-1608,ZrHg3,"Hg, Zr",2,0.02171306624999403,Cubic,221,Pm-3m,0.0,False,True,0.2901185102677869
mp-2210,ZrCu,"Cu, Zr",2,0.04223478423077154,Cubic,221,Pm-3m,0.0,False,True,0.2849999999999999
mp-2179,TiRe,"Re, Ti",2,0.0,Cubic,221,Pm-3m,0.0,False,True,0.17999999999999994
mp-999189,Fe3Ni,"Fe, Ni",2,0.0776360924999997,Cubic,221,Pm-3m,0.0,True,True,0.034641016151377484
mp-1185786,Mg3Tl,"Mg, Tl",2,0.017983151250000162,Cubic,221,Pm-3m,0.0,True,True,0.13423393758658803
mp-866006,CaBi3,"Bi, Ca",2,0.010853763750000578,Cubic,221,Pm-3m,0.0,True,True,0.4416729559300637
mp-1187665,Ti3In,"In, Ti",2,0.014760678749999201,Cubic,221,Pm-3m,0.0,True,True,0.10392304845413264
mp-1186985,ScNi3,"Ni, Sc",2,0.02393982208333334,Cubic,221,Pm-3m,0.0,True,True,0.23815698604072055
mp-1885,AlIr,"Al, Ir",2,0.0,Cubic,221,Pm-3m,0.0,False,True,0.29500000000000004
mp-20487,La3Ga,"Ga, La",2,0.07183331791666703,Cubic,221,Pm-3m,0.0,False,True,0.3074390183434757
mp-601842,Fe9Co7,"Co, Fe",2,0.0,Cubic,221,Pm-3m,0.0,True,True,0.02480391854123045
mp-481,ScPt3,"Pt, Sc",2,0.0,Cubic,221,Pm-3m,0.0,False,True,0.39837168574084164
mp-20695,Zr3In,"In, Zr",2,0.0,Cubic,221,Pm-3m,0.0,False,True,0.1948557158514987
mp-2001,LaTl3,"La, Tl",2,0.0,Cubic,221,Pm-3m,0.0,False,True,0.22516660498395405
mp-1486,ZnNi,"Ni, Zn",2,0.009157754999999934,Cubic,221,Pm-3m,0.0,False,True,0.13
mp-1094670,LiMg3,"Li, Mg",2,0.03397517125000027,Cubic,221,Pm-3m,0.0,True,True,0.1428941916244324
mp-1185080,KRb3,"K, Rb",2,0.022712940062499465,Cubic,221,Pm-3m,0.0,True,True,0.0
mp-1007852,FeCo3,"Co, Fe",2,0.056625132499999786,Cubic,221,Pm-3m,0.0,True,True,0.02165063509461089
mp-2449,NbRh3,"Nb, Rh",2,0.00891538750000187,Cubic,221,Pm-3m,0.0,False,True,0.294448637286709
mp-608,TiCo3,"Co, Ti",2,0.04045357499999902,Cubic,221,Pm-3m,0.0,False,True,0.1472243186433545
mp-291,TiOs,"Os, Ti",2,0.0,Cubic,221,Pm-3m,0.0,False,True,0.33000000000000007
mp-1039148,CaMg,"Ca, Mg",2,0.00029910124999932286,Cubic,221,Pm-3m,0.0,True,True,0.15500000000000003
mp-2658,AlFe,"Al, Fe",2,0.0,Cubic,221,Pm-3m,0.0,False,True,0.10999999999999999
mp-615,YMg,"Mg, Y",2,0.0,Cubic,221,Pm-3m,0.0,False,True,0.04500000000000004
mp-1094786,Sr3Mg,"Mg, Sr",2,0.07847616374999977,Cubic,221,Pm-3m,0.0,True,True,0.15588457268119899
mp-30351,MgAg3,"Ag, Mg",2,0.010391439999999363,Cubic,221,Pm-3m,0.0,False,True,0.26846787517317594
mp-1902,MnPd,"Mn, Pd",2,0.009346633413791494,Cubic,221,Pm-3m,0.0,False,True,0.32500000000000007
mp-12083,CrIr3,"Cr, Ir",2,0.0,Cubic,221,Pm-3m,0.0,False,True,0.23382685902179856
mp-974951,Rb3Hg,"Hg, Rb",2,0.06380580652343759,Cubic,221,Pm-3m,0.0,True,True,0.5109549882328188
mp-978294,Mg3Sn,"Mg, Sn",2,0.009186113749999336,Cubic,221,Pm-3m,0.0,True,True,0.2814582562299425
mp-1187484,TlBi3,"Bi, Tl",2,0.081235227500005,Cubic,221,Pm-3m,0.0,True,True,0.17320508075688767
mp-2781,ScPd,"Pd, Sc",2,0.0,Cubic,221,Pm-3m,0.0,False,True,0.42000000000000004
mp-1002122,HfIr,"Hf, Ir",2,0.04242818999999898,Cubic,221,Pm-3m,0.0,True,True,0.45000000000000007
mp-1039106,SnBi,"Bi, Sn",2,0.09279261250000026,Cubic,221,Pm-3m,0.0,True,True,0.030000000000000027
mp-1185,VRh3,"Rh, V",2,0.008832503749999887,Cubic,221,Pm-3m,0.0,False,True,0.2814582562299425
mp-1335,VFe,"Fe, V",2,0.021580906875001915,Cubic,221,Pm-3m,0.0,False,True,0.10000000000000009
mp-1094922,CaMg3,"Ca, Mg",2,0.0575648374999993,Cubic,221,Pm-3m,0.0,True,True,0.13423393758658803
mp-20729,LaIn3,"In, La",2,0.0,Cubic,221,Pm-3m,0.0,False,True,0.2944486372867091
mp-978281,Mg3Ga,"Ga, Mg",2,0.031655937500000064,Cubic,221,Pm-3m,0.0,True,True,0.21650635094610965
mp-30856,ZnPt3,"Pt, Zn",2,0.0,Cubic,221,Pm-3m,0.0,False,True,0.27279800219209815
mp-2474,YAg,"Ag, Y",2,0.0,Cubic,221,Pm-3m,0.0,False,True,0.355
mp-11261,YAu,"Au, Y",2,0.042603579999997976,Cubic,221,Pm-3m,0.0,False,True,0.66
mp-568106,Mg41Al67,"Al, Mg",2,0.05170004335648093,Cubic,221,Pm-3m,0.0,False,True,0.1455884186819851
mp-1186225,NbOs3,"Nb, Os",2,0.03935417152778342,Cubic,221,Pm-3m,0.0,True,True,0.2598076211353316
mp-2773,BeCo,"Be, Co",2,0.0,Cubic,221,Pm-3m,0.0,False,True,0.15499999999999992
mp-1007656,HfPd3,"Hf, Pd",2,0.014758419999946426,Cubic,221,Pm-3m,0.0,True,True,0.38971143170299744
mp-867248,LaBi3,"Bi, La",2,0.0,Cubic,221,Pm-3m,0.0,True,True,0.3983716857408417
mp-1186967,Sc3Hg,"Hg, Sc",2,0.021109168750001572,Cubic,221,Pm-3m,0.0,True,True,0.2771281292110203
mp-12086,Cu3Pt,"Cu, Pt",2,0.0,Cubic,221,Pm-3m,0.0,False,True,0.1645448267190433
mp-2516,YZn,"Y, Zn",2,0.0,Cubic,221,Pm-3m,0.0,False,True,0.21499999999999997
mp-974627,K3Tl,"K, Tl",2,0.08472879322321436,Cubic,221,Pm-3m,0.0,True,True,0.3464101615137755
mp-1184361,Ga3Pb,"Ga, Pb",2,0.09364574937499981,Cubic,221,Pm-3m,0.0,True,True,0.22516660498395405
mp-20828,Pt3Pb,"Pb, Pt",2,0.03465780500000193,Cubic,221,Pm-3m,0.0,False,True,0.02165063509461108
mp-188,AlPt3,"Al, Pt",2,0.01388988312499606,Cubic,221,Pm-3m,0.0,False,True,0.29011851026778684
mp-1681,La3Sn,"La, Sn",2,0.0,Cubic,221,Pm-3m,0.0,False,True,0.3723909236273086
mp-11541,ZrOs,"Os, Zr",2,0.0,Cubic,221,Pm-3m,0.0,False,True,0.43500000000000005
mp-979269,Tl3Cd,"Cd, Tl",2,0.07145271999999636,Cubic,221,Pm-3m,0.0,True,True,0.030310889132455283
mp-980945,Ti3Nb,"Nb, Ti",2,0.08445038499999846,Cubic,221,Pm-3m,0.0,True,True,0.025980762113533184
mp-2393,YTl3,"Tl, Y",2,0.0,Cubic,221,Pm-3m,0.0,False,True,0.17320508075688779
mp-11478,GaAg,"Ag, Ga",2,0.08855271229166561,Cubic,221,Pm-3m,0.0,False,True,0.05999999999999994
mp-569775,ZrAl3,"Al, Zr",2,0.021179049999998867,Cubic,221,Pm-3m,0.0,False,True,0.12124355652982143
mp-1180,MnPt3,"Mn, Pt",2,0.0,Cubic,221,Pm-3m,0.0,False,True,0.31609927238132
mp-214,ZrRu,"Ru, Zr",2,0.0,Cubic,221,Pm-3m,0.0,False,True,0.43500000000000005
mp-1183314,Ba3Ca,"Ba, Ca",2,0.04035435500000162,Cubic,221,Pm-3m,0.0,True,True,0.04763139720814412
mp-1184995,La3Cd,"Cd, La",2,0.040731067499997664,Cubic,221,Pm-3m,0.0,True,True,0.25547749411640935
mp-11276,BeRh,"Be, Rh",2,0.0,Cubic,221,Pm-3m,0.0,False,True,0.35499999999999987
mp-974370,PtRh3,"Pt, Rh",2,0.0019054425000000208,Cubic,221,Pm-3m,0.0,True,True,0.0
mp-2403,YPt3,"Pt, Y",2,0.0,Cubic,221,Pm-3m,0.0,False,True,0.4589934640057524
mp-30338,Y3Al,"Al, Y",2,0.07052767812499994,Cubic,221,Pm-3m,0.0,False,True,0.16887495373796557
mp-971758,ZnNi3,"Ni, Zn",2,0.01401181249999972,Cubic,221,Pm-3m,0.0,True,True,0.11258330249197704
mp-2027,HfCo,"Co, Hf",2,0.0,Cubic,221,Pm-3m,0.0,False,True,0.2899999999999999
mp-1039154,MgBi,"Bi, Mg",2,0.09631191499999758,Cubic,221,Pm-3m,0.0,True,True,0.355
mp-20263,CaIn,"Ca, In",2,0.020320988749999103,Cubic,221,Pm-3m,0.0,False,True,0.39
mp-1184975,La3Zn,"La, Zn",2,0.09737842250000028,Cubic,221,Pm-3m,0.0,True,True,0.23815698604072055
mp-974335,RuRh3,"Rh, Ru",2,0.0347198320833364,Cubic,221,Pm-3m,0.0,True,True,0.034641016151377386
mp-902,BaZn,"Ba, Zn",2,0.0035235766666672497,Cubic,221,Pm-3m,0.0,False,True,0.37999999999999995
mp-21845,FePd3,"Fe, Pd",2,0.0,Cubic,221,Pm-3m,0.0,False,True,0.1602146997001212
mp-1094802,MgSn3,"Mg, Sn",2,0.0345457893750023,Cubic,221,Pm-3m,0.0,True,True,0.2814582562299425
mp-974866,Rb3Na,"Na, Rb",2,0.04839936153017321,Cubic,221,Pm-3m,0.0,True,True,0.04763139720814417
mp-2197,BaHg,"Ba, Hg",2,0.0,Cubic,221,Pm-3m,0.0,False,True,0.555
mp-978273,Mg3Cd,"Cd, Mg",2,0.01759173375000067,Cubic,221,Pm-3m,0.0,True,True,0.1645448267190433
mp-11231,YAl3,"Al, Y",2,0.03499018499999984,Cubic,221,Pm-3m,0.0,False,True,0.16887495373796557
mp-1039073,Mg3Bi,"Bi, Mg",2,0.030943198124997906,Cubic,221,Pm-3m,0.0,True,True,0.3074390183434757
mp-1184759,IrPt3,"Ir, Pt",2,0.0816372900000033,Cubic,221,Pm-3m,0.0,True,True,0.034641016151377386
mp-1184488,In3Bi,"Bi, In",2,0.06479556291666455,Cubic,221,Pm-3m,0.0,True,True,0.10392304845413264
mp-1184225,Fe3W,"Fe, W",2,0.08230830687499768,Cubic,221,Pm-3m,0.0,True,True,0.22949673200287615
mp-11504,MnZn3,"Mn, Zn",2,0.0,Cubic,221,Pm-3m,0.0,False,True,0.04330127018922188
mp-1070544,CrGa4,"Cr, Ga",2,0.0,Cubic,229,Im-3m,0.0,False,True,0.06000000000000005
mp-12766,Mg13Al14,"Al, Mg",2,0.08898626425925915,Cubic,229,Im-3m,0.0,False,True,0.1498970840359116
mp-1084832,Fe5Co3,"Co, Fe",2,0.04982709750000058,Cubic,229,Im-3m,0.0,True,True,0.02420614591379627
mp-16852,Ga7Ni3,"Ga, Ni",2,0.017288673499997742,Cubic,229,Im-3m,0.0,False,True,0.04582575694955834
mp-22075,In7Pt3,"In, Pt",2,0.015418141999997914,Cubic,229,Im-3m,0.0,False,True,0.22912878474779189
mp-568655,In7Pd3,"In, Pd",2,0.0,Cubic,229,Im-3m,0.0,False,True,0.19246817918814535
mp-1188512,Ga7Pt3,"Ga, Pt",2,0.0,Cubic,229,Im-3m,0.0,False,True,0.21538105766292434
mp-570835,NiHg4,"Hg, Ni",2,0.01705295800000073,Cubic,229,Im-3m,0.0,False,True,0.03600000000000003
mp-936,Hg4Pt,"Hg, Pt",2,0.0,Cubic,229,Im-3m,0.0,False,True,0.11199999999999992
mp-646824,Ca3Ag8,"Ag, Ca",2,0.03675958545454705,Cubic,229,Im-3m,0.0,False,True,0.41418644741606464
mp-22344,Sn7Ru3,"Ru, Sn",2,0.0,Cubic,229,Im-3m,0.0,False,True,0.10998181667894025
mp-22040,Sn7Ir3,"Ir, Sn",2,0.01883442749999631,Cubic,229,Im-3m,0.0,False,True,0.10998181667894025
mp-1106289,Ga7Pd3,"Ga, Pd",2,0.0,Cubic,229,Im-3m,0.0,False,True,0.1787204521032778
mp-2729,Sn7Os3,"Os, Sn",2,0.03351108299999339,Cubic,229,Im-3m,0.0,False,True,0.10998181667894025
mp-1080603,Fe7Co,"Co, Fe",2,0.000538421250000809,Cubic,229,Im-3m,0.0,True,True,0.016535945694153634
mp-1069288,MnGa4,"Ga, Mn",2,0.0,Cubic,229,Im-3m,0.0,False,True,0.10400000000000001
mp-1212307,In7Ni3,"In, Ni",2,0.0,Cubic,229,Im-3m,0.8483999999999998,True,False,0.05957348403442587
mp-1016233,Mg3Al,"Al, Mg",2,0.055965538020833705,Orthorhombic,25,Pmm2,0.0,True,True,0.1299038105676658
mp-1220502,Nb5Ir7,"Ir, Nb",2,0.07958933541666724,Orthorhombic,25,Pmm2,0.0,True,True,0.29580398915498085
mp-1016238,Mg3Sn,"Mg, Sn",2,0.07792963874999925,Orthorhombic,25,Pmm2,0.0,True,True,0.2814582562299425
mp-1094950,MgGa3,"Ga, Mg",2,0.054286702187500424,Orthorhombic,25,Pmm2,0.0,True,True,0.21650635094610965
mp-1185881,MgHg3,"Hg, Mg",2,0.05539116374999331,Orthorhombic,25,Pmm2,0.0,True,True,0.2987787643056313
mp-1016221,Mg3Ga,"Ga, Mg",2,0.06523274999999895,Orthorhombic,25,Pmm2,0.0,True,True,0.21650635094610965
mp-976139,Li3Mg,"Li, Mg",2,0.0021042304166667414,Orthorhombic,25,Pmm2,0.0,True,True,0.1428941916244324
mp-1094759,La3Mg,"La, Mg",2,0.048342801250000456,Orthorhombic,25,Pmm2,0.0,True,True,0.09093266739736605
mp-1094741,MgZn3,"Mg, Zn",2,0.08581633797618915,Orthorhombic,25,Pmm2,0.0,True,True,0.1472243186433545