material_id,formula,elements,num_elements,energy_above_hull,crystal_system,spacegroup_number,spacegroup_symbol,band_gap,theoretical,is_metal,electronegativity_difference,atomic_concentrations
mp-1174,MgSc,"Mg, Sc",2,0.0,Cubic,221,Pm-3m,0.0,False,True,0.0250,Mg: 0.5000; Sc: 0.5000
mp-570276,ZrZn,"Zn, Zr",2,0.0,Cubic,221,Pm-3m,0.0,False,True,0.1600,Zr: 0.5000; Zn: 0.5000
mp-20131,YIn3,"In, Y",2,0.0,Cubic,221,Pm-3m,0.0,False,True,0.2425,Y: 0.2500; In: 0.7500
mp-1211,ScCd,"Cd, Sc",2,0.0,Cubic,221,Pm-3m,0.0,False,True,0.1650,Sc: 0.5000; Cd: 0.5000
mp-2323,BeCu,"Be, Cu",2,0.005036342500000401,Cubic,221,Pm-3m,0.0,False,True,0.1650,Be: 0.5000; Cu: 0.5000
mp-815,GaNi3,"Ga, Ni",2,0.0,Cubic,221,Pm-3m,0.0,False,True,0.0433,Ga: 0.2500; Ni: 0.7500
mp-734,LaHg,"Hg, La",2,0.0,Cubic,221,Pm-3m,0.0,False,True,0.4500,La: 0.5000; Hg: 0.5000
mp-527,BaCd,"Ba, Cd",2,0.0,Cubic,221,Pm-3m,0.0,False,True,0.4000,Ba: 0.5000; Cd: 0.5000
mp-674,LaPd3,"La, Pd",2,0.0,Cubic,221,Pm-3m,0.0,False,True,0.4763,La: 0.2500; Pd: 0.7500
mp-506,MgPd,"Mg, Pd",2,0.0,Cubic,221,Pm-3m,0.0,False,True,0.4450,Mg: 0.5000; Pd: 0.5000
mp-22784,InNi3,"In, Ni",2,0.07934622749999853,Cubic,221,Pm-3m,0.0,False,True,0.0563,In: 0.2500; Ni: 0.7500
mp-1018029,CuPd,"Cu, Pd",2,0.0,Cubic,221,Pm-3m,0.0,False,True,0.1500,Cu: 0.5000; Pd: 0.5000
mp-21289,TiZn3,"Ti, Zn",2,0.006043867499998079,Cubic,221,Pm-3m,0.0,False,True,0.0476,Ti: 0.2500; Zn: 0.7500
mp-21162,SrPb3,"Pb, Sr",2,0.0,Cubic,221,Pm-3m,0.0,False,True,0.5976,Sr: 0.2500; Pb: 0.7500
mp-1063661,MgNi3,"Mg, Ni",2,0.09358975781249956,Cubic,221,Pm-3m,0.0,False,True,0.2598,Mg: 0.2500; Ni: 0.7500
mp-2444,GaRh,"Ga, Rh",2,0.0,Cubic,221,Pm-3m,0.0,False,True,0.2350,Ga: 0.5000; Rh: 0.5000
mp-899,InRh,"In, Rh",2,0.0,Cubic,221,Pm-3m,0.0,False,True,0.2500,In: 0.5000; Rh: 0.5000
mp-12065,Ag3Pt,"Ag, Pt",2,0.020805422500000503,Cubic,221,Pm-3m,0.0,False,True,0.1516,Ag: 0.7500; Pt: 0.2500
mp-1089,TiIr3,"Ir, Ti",2,0.0,Cubic,221,Pm-3m,0.0,False,True,0.2858,Ti: 0.2500; Ir: 0.7500
mp-12585,CrRh3,"Cr, Rh",2,0.0,Cubic,221,Pm-3m,0.0,False,True,0.2685,Cr: 0.2500; Rh: 0.7500
mp-11457,HfRh,"Hf, Rh",2,0.0,Cubic,221,Pm-3m,0.0,False,True,0.4900,Hf: 0.5000; Rh: 0.5000
mp-1339,NbIr3,"Ir, Nb",2,0.002251210000004278,Cubic,221,Pm-3m,0.0,False,True,0.2598,Nb: 0.2500; Ir: 0.7500
mp-2642,CdAg,"Ag, Cd",2,0.0,Cubic,221,Pm-3m,0.0,False,True,0.1200,Cd: 0.5000; Ag: 0.5000
mp-284,AlCo,"Al, Co",2,0.0,Cubic,221,Pm-3m,0.0,False,True,0.1350,Al: 0.5000; Co: 0.5000
mp-10890,LiAl3,"Al, Li",2,0.0109495750000006,Cubic,221,Pm-3m,0.0,False,True,0.2728,Li: 0.2500; Al: 0.7500
mp-1121,GaCo,"Co, Ga",2,0.0,Cubic,221,Pm-3m,0.0,False,True,0.0350,Ga: 0.5000; Co: 0.5000
mp-2515,CrPt3,"Cr, Pt",2,0.0,Cubic,221,Pm-3m,0.0,False,True,0.2685,Cr: 0.2500; Pt: 0.7500
mp-1471,Zr3Al,"Al, Zr",2,0.0,Cubic,221,Pm-3m,0.0,False,True,0.1212,Zr: 0.7500; Al: 0.2500
mp-11452,HfOs,"Hf, Os",2,0.0,Cubic,221,Pm-3m,0.0,False,True,0.4500,Hf: 0.5000; Os: 0.5000
mp-2314,LiPb,"Li, Pb",2,0.0,Cubic,221,Pm-3m,0.0,False,True,0.6750,Li: 0.5000; Pb: 0.5000
mp-30496,SrCd,"Cd, Sr",2,0.0,Cubic,221,Pm-3m,0.0,False,True,0.3700,Sr: 0.5000; Cd: 0.5000
mp-31337,InPd3,"In, Pd",2,0.031658931249999966,Cubic,221,Pm-3m,0.0,False,True,0.1819,In: 0.2500; Pd: 0.7500
mp-11471,ScHg,"Hg, Sc",2,0.0,Cubic,221,Pm-3m,0.0,False,True,0.3200,Sc: 0.5000; Hg: 0.5000
mp-7753,MgPd3,"Mg, Pd",2,0.01137175124999068,Cubic,221,Pm-3m,0.0,False,True,0.3854,Mg: 0.2500; Pd: 0.7500
mp-2434,SrTl,"Sr, Tl",2,0.0,Cubic,221,Pm-3m,0.0,False,True,0.3350,Sr: 0.5000; Tl: 0.5000
mp-1395,VRu,"Ru, V",2,0.0,Cubic,221,Pm-3m,0.0,False,True,0.2850,V: 0.5000; Ru: 0.5000
mp-417,MnRh,"Mn, Rh",2,0.0,Cubic,221,Pm-3m,0.0,False,True,0.3650,Mn: 0.5000; Rh: 0.5000
mp-11229,YAl,"Al, Y",2,0.030594507500000034,Cubic,221,Pm-3m,0.0,False,True,0.1950,Y: 0.5000; Al: 0.5000
mp-11503,MnZn,"Mn, Zn",2,0.0832009423563207,Cubic,221,Pm-3m,0.0,False,True,0.0500,Mn: 0.5000; Zn: 0.5000
mp-11578,VZn3,"V, Zn",2,0.0,Cubic,221,Pm-3m,0.0,False,True,0.0087,V: 0.2500; Zn: 0.7500
mp-1918,FeRh,"Fe, Rh",2,0.0,Cubic,221,Pm-3m,0.0,False,True,0.2250,Fe: 0.5000; Rh: 0.5000
mp-11575,YTl,"Tl, Y",2,0.0,Cubic,221,Pm-3m,0.0,False,True,0.2000,Y: 0.5000; Tl: 0.5000
mp-2757,CdAu,"Au, Cd",2,0.011665960555554022,Cubic,221,Pm-3m,0.0,False,True,0.4250,Cd: 0.5000; Au: 0.5000
mp-265,TaIr3,"Ir, Ta",2,0.0,Cubic,221,Pm-3m,0.0,False,True,0.3031,Ta: 0.2500; Ir: 0.7500
mp-30746,YIr,"Ir, Y",2,0.0,Cubic,221,Pm-3m,0.0,False,True,0.4900,Y: 0.5000; Ir: 0.5000
mp-12107,TiPt3,"Pt, Ti",2,0.004863833214280078,Cubic,221,Pm-3m,0.0,False,True,0.3204,Ti: 0.2500; Pt: 0.7500
mp-829,AlPd,"Al, Pd",2,0.037793284999999344,Cubic,221,Pm-3m,0.0,False,True,0.2950,Al: 0.5000; Pd: 0.5000
mp-2802,HfRu,"Hf, Ru",2,0.0,Cubic,221,Pm-3m,0.0,False,True,0.4500,Hf: 0.5000; Ru: 0.5000
mp-1487,AlNi,"Al, Ni",2,0.0,Cubic,221,Pm-3m,0.0,False,True,0.1500,Al: 0.5000; Ni: 0.5000
mp-12674,MnAu,"Au, Mn",2,0.0,Cubic,221,Pm-3m,0.0,False,True,0.4950,Mn: 0.5000; Au: 0.5000
mp-12593,ScIr3,"Ir, Sc",2,0.0,Cubic,221,Pm-3m,0.0,False,True,0.3637,Sc: 0.2500; Ir: 0.7500
mp-11286,CaHg,"Ca, Hg",2,0.0,Cubic,221,Pm-3m,0.0,False,True,0.5000,Ca: 0.5000; Hg: 0.5000
mp-570691,Ti3Sn,"Sn, Ti",2,0.03354331625000029,Cubic,221,Pm-3m,0.0,False,True,0.1819,Ti: 0.7500; Sn: 0.2500
mp-2677,ScPd3,"Pd, Sc",2,0.0,Cubic,221,Pm-3m,0.0,False,True,0.3637,Sc: 0.2500; Pd: 0.7500
mp-12778,VOs,"Os, V",2,0.0,Cubic,221,Pm-3m,0.0,False,True,0.2850,V: 0.5000; Os: 0.5000
mp-1912,ZnAg,"Ag, Zn",2,0.0,Cubic,221,Pm-3m,0.0,False,True,0.1400,Zn: 0.5000; Ag: 0.5000
mp-1129,ScIr,"Ir, Sc",2,0.0,Cubic,221,Pm-3m,0.0,False,True,0.4200,Sc: 0.5000; Ir: 0.5000
mp-2560,Ti3Hg,"Hg, Ti",2,0.07098824124999936,Cubic,221,Pm-3m,0.0,False,True,0.1992,Ti: 0.7500; Hg: 0.2500
mp-1033,BeNi,"Be, Ni",2,0.0,Cubic,221,Pm-3m,0.0,False,True,0.1700,Be: 0.5000; Ni: 0.5000
mp-371,La3Tl,"La, Tl",2,0.0,Cubic,221,Pm-3m,0.0,False,True,0.2252,La: 0.7500; Tl: 0.2500
mp-11279,TiBe,"Be, Ti",2,0.005038837916666594,Cubic,221,Pm-3m,0.0,False,True,0.0150,Ti: 0.5000; Be: 0.5000
mp-364,AlRh,"Al, Rh",2,0.0,Cubic,221,Pm-3m,0.0,False,True,0.3350,Al: 0.5000; Rh: 0.5000
mp-20909,La3In,"In, La",2,0.0,Cubic,221,Pm-3m,0.0,False,True,0.2944,La: 0.7500; In: 0.2500
mp-568711,VPd3,"Pd, V",2,0.0,Cubic,221,Pm-3m,0.0,False,True,0.2468,V: 0.2500; Pd: 0.7500
mp-1103521,Sr8Rh5,"Rh, Sr",2,0.06306937846153815,Cubic,221,Pm-3m,0.0,False,True,0.6471,Sr: 0.6154; Rh: 0.3846
mp-11572,TaTc,"Ta, Tc",2,0.0,Cubic,221,Pm-3m,0.0,False,True,0.2000,Ta: 0.5000; Tc: 0.5000
mp-10889,La3Al,"Al, La",2,0.04054629000000176,Cubic,221,Pm-3m,0.0,False,True,0.2208,La: 0.7500; Al: 0.2500
mp-1600,BaHg11,"Ba, Hg",2,0.023561886180550773,Cubic,221,Pm-3m,0.0,False,True,0.3068,Ba: 0.0833; Hg: 0.9167
mp-953,NbZn3,"Nb, Zn",2,0.0,Cubic,221,Pm-3m,0.0,False,True,0.0217,Nb: 0.2500; Zn: 0.7500
mp-1608,ZrHg3,"Hg, Zr",2,0.02171306624999403,Cubic,221,Pm-3m,0.0,False,True,0.2901,Zr: 0.2500; Hg: 0.7500
mp-2210,ZrCu,"Cu, Zr",2,0.04223478423077154,Cubic,221,Pm-3m,0.0,False,True,0.2850,Zr: 0.5000; Cu: 0.5000
mp-2179,TiRe,"Re, Ti",2,0.0,Cubic,221,Pm-3m,0.0,False,True,0.1800,Ti: 0.5000; Re: 0.5000
mp-1885,AlIr,"Al, Ir",2,0.0,Cubic,221,Pm-3m,0.0,False,True,0.2950,Al: 0.5000; Ir: 0.5000
mp-20487,La3Ga,"Ga, La",2,0.07183331791666703,Cubic,221,Pm-3m,0.0,False,True,0.3074,La: 0.7500; Ga: 0.2500
mp-481,ScPt3,"Pt, Sc",2,0.0,Cubic,221,Pm-3m,0.0,False,True,0.3984,Sc: 0.2500; Pt: 0.7500
mp-20695,Zr3In,"In, Zr",2,0.0,Cubic,221,Pm-3m,0.0,False,True,0.1949,Zr: 0.7500; In: 0.2500
mp-2001,LaTl3,"La, Tl",2,0.0,Cubic,221,Pm-3m,0.0,False,True,0.2252,La: 0.2500; Tl: 0.7500
mp-1486,ZnNi,"Ni, Zn",2,0.009157754999999934,Cubic,221,Pm-3m,0.0,False,True,0.1300,Zn: 0.5000; Ni: 0.5000
mp-2449,NbRh3,"Nb, Rh",2,0.00891538750000187,Cubic,221,Pm-3m,0.0,False,True,0.2944,Nb: 0.2500; Rh: 0.7500
mp-608,TiCo3,"Co, Ti",2,0.04045357499999902,Cubic,221,Pm-3m,0.0,False,True,0.1472,Ti: 0.2500; Co: 0.7500
mp-291,TiOs,"Os, Ti",2,0.0,Cubic,221,Pm-3m,0.0,False,True,0.3300,Ti: 0.5000; Os: 0.5000
mp-2658,AlFe,"Al, Fe",2,0.0,Cubic,221,Pm-3m,0.0,False,True,0.1100,Al: 0.5000; Fe: 0.5000
mp-615,YMg,"Mg, Y",2,0.0,Cubic,221,Pm-3m,0.0,False,True,0.0450,Y: 0.5000; Mg: 0.5000
mp-30351,MgAg3,"Ag, Mg",2,0.010391439999999363,Cubic,221,Pm-3m,0.0,False,True,0.2685,Mg: 0.2500; Ag: 0.7500
mp-1902,MnPd,"Mn, Pd",2,0.009346633413791494,Cubic,221,Pm-3m,0.0,False,True,0.3250,Mn: 0.5000; Pd: 0.5000
mp-12083,CrIr3,"Cr, Ir",2,0.0,Cubic,221,Pm-3m,0.0,False,True,0.2338,Cr: 0.2500; Ir: 0.7500
mp-2781,ScPd,"Pd, Sc",2,0.0,Cubic,221,Pm-3m,0.0,False,True,0.4200,Sc: 0.5000; Pd: 0.5000
mp-1185,VRh3,"Rh, V",2,0.008832503749999887,Cubic,221,Pm-3m,0.0,False,True,0.2815,V: 0.2500; Rh: 0.7500
mp-1335,VFe,"Fe, V",2,0.021580906875001915,Cubic,221,Pm-3m,0.0,False,True,0.1000,V: 0.5000; Fe: 0.5000
mp-20729,LaIn3,"In, La",2,0.0,Cubic,221,Pm-3m,0.0,False,True,0.2944,La: 0.2500; In: 0.7500
mp-30856,ZnPt3,"Pt, Zn",2,0.0,Cubic,221,Pm-3m,0.0,False,True,0.2728,Zn: 0.2500; Pt: 0.7500
mp-2474,YAg,"Ag, Y",2,0.0,Cubic,221,Pm-3m,0.0,False,True,0.3550,Y: 0.5000; Ag: 0.5000
mp-11261,YAu,"Au, Y",2,0.042603579999997976,Cubic,221,Pm-3m,0.0,False,True,0.6600,Y: 0.5000; Au: 0.5000
mp-568106,Mg41Al67,"Al, Mg",2,0.05170004335648093,Cubic,221,Pm-3m,0.0,False,True,0.1456,Mg: 0.3796; Al: 0.6204
mp-2773,BeCo,"Be, Co",2,0.0,Cubic,221,Pm-3m,0.0,False,True,0.1550,Be: 0.5000; Co: 0.5000
mp-12086,Cu3Pt,"Cu, Pt",2,0.0,Cubic,221,Pm-3m,0.0,False,True,0.1645,Cu: 0.7500; Pt: 0.2500
mp-2516,YZn,"Y, Zn",2,0.0,Cubic,221,Pm-3m,0.0,False,True,0.2150,Y: 0.5000; Zn: 0.5000
mp-20828,Pt3Pb,"Pb, Pt",2,0.03465780500000193,Cubic,221,Pm-3m,0.0,False,True,0.0217,Pt: 0.7500; Pb: 0.2500
mp-188,AlPt3,"Al, Pt",2,0.01388988312499606,Cubic,221,Pm-3m,0.0,False,True,0.2901,Al: 0.2500; Pt: 0.7500
mp-1681,La3Sn,"La, Sn",2,0.0,Cubic,221,Pm-3m,0.0,False,True,0.3724,La: 0.7500; Sn: 0.2500
mp-11541,ZrOs,"Os, Zr",2,0.0,Cubic,221,Pm-3m,0.0,False,True,0.4350,Zr: 0.5000; Os: 0.5000
mp-2393,YTl3,"Tl, Y",2,0.0,Cubic,221,Pm-3m,0.0,False,True,0.1732,Y: 0.2500; Tl: 0.7500
mp-11478,GaAg,"Ag, Ga",2,0.08855271229166561,Cubic,221,Pm-3m,0.0,False,True,0.0600,Ga: 0.5000; Ag: 0.5000
mp-569775,ZrAl3,"Al, Zr",2,0.021179049999998867,Cubic,221,Pm-3m,0.0,False,True,0.1212,Zr: 0.2500; Al: 0.7500
mp-1180,MnPt3,"Mn, Pt",2,0.0,Cubic,221,Pm-3m,0.0,False,True,0.3161,Mn: 0.2500; Pt: 0.7500
mp-214,ZrRu,"Ru, Zr",2,0.0,Cubic,221,Pm-3m,0.0,False,True,0.4350,Zr: 0.5000; Ru: 0.5000
mp-11276,BeRh,"Be, Rh",2,0.0,Cubic,221,Pm-3m,0.0,False,True,0.3550,Be: 0.5000; Rh: 0.5000
mp-2403,YPt3,"Pt, Y",2,0.0,Cubic,221,Pm-3m,0.0,False,True,0.4590,Y: 0.2500; Pt: 0.7500
mp-30338,Y3Al,"Al, Y",2,0.07052767812499994,Cubic,221,Pm-3m,0.0,False,True,0.1689,Y: 0.7500; Al: 0.2500
mp-2027,HfCo,"Co, Hf",2,0.0,Cubic,221,Pm-3m,0.0,False,True,0.2900,Hf: 0.5000; Co: 0.5000
mp-20263,CaIn,"Ca, In",2,0.020320988749999103,Cubic,221,Pm-3m,0.0,False,True,0.3900,Ca: 0.5000; In: 0.5000
mp-902,BaZn,"Ba, Zn",2,0.0035235766666672497,Cubic,221,Pm-3m,0.0,False,True,0.3800,Ba: 0.5000; Zn: 0.5000
mp-21845,FePd3,"Fe, Pd",2,0.0,Cubic,221,Pm-3m,0.0,False,True,0.1602,Fe: 0.2500; Pd: 0.7500
mp-2197,BaHg,"Ba, Hg",2,0.0,Cubic,221,Pm-3m,0.0,False,True,0.5550,Ba: 0.5000; Hg: 0.5000
mp-11231,YAl3,"Al, Y",2,0.03499018499999984,Cubic,221,Pm-3m,0.0,False,True,0.1689,Y: 0.2500; Al: 0.7500
mp-11504,MnZn3,"Mn, Zn",2,0.0,Cubic,221,Pm-3m,0.0,False,True,0.0433,Mn: 0.2500; Zn: 0.7500
mp-1070544,CrGa4,"Cr, Ga",2,0.0,Cubic,229,Im-3m,0.0,False,True,0.0600,Cr: 0.2000; Ga: 0.8000
mp-12766,Mg13Al14,"Al, Mg",2,0.08898626425925915,Cubic,229,Im-3m,0.0,False,True,0.1499,Mg: 0.4815; Al: 0.5185
mp-16852,Ga7Ni3,"Ga, Ni",2,0.017288673499997742,Cubic,229,Im-3m,0.0,False,True,0.0458,Ga: 0.7000; Ni: 0.3000
mp-22075,In7Pt3,"In, Pt",2,0.015418141999997914,Cubic,229,Im-3m,0.0,False,True,0.2291,In: 0.7000; Pt: 0.3000
mp-568655,In7Pd3,"In, Pd",2,0.0,Cubic,229,Im-3m,0.0,False,True,0.1925,In: 0.7000; Pd: 0.3000
mp-1188512,Ga7Pt3,"Ga, Pt",2,0.0,Cubic,229,Im-3m,0.0,False,True,0.2154,Ga: 0.7000; Pt: 0.3000
mp-570835,NiHg4,"Hg, Ni",2,0.01705295800000073,Cubic,229,Im-3m,0.0,False,True,0.0360,Ni: 0.2000; Hg: 0.8000
mp-936,Hg4Pt,"Hg, Pt",2,0.0,Cubic,229,Im-3m,0.0,False,True,0.1120,Hg: 0.8000; Pt: 0.2000
mp-646824,Ca3Ag8,"Ag, Ca",2,0.03675958545454705,Cubic,229,Im-3m,0.0,False,True,0.4142,Ca: 0.2727; Ag: 0.7273
mp-22344,Sn7Ru3,"Ru, Sn",2,0.0,Cubic,229,Im-3m,0.0,False,True,0.1100,Sn: 0.7000; Ru: 0.3000
mp-22040,Sn7Ir3,"Ir, Sn",2,0.01883442749999631,Cubic,229,Im-3m,0.0,False,True,0.1100,Sn: 0.7000; Ir: 0.3000
mp-1106289,Ga7Pd3,"Ga, Pd",2,0.0,Cubic,229,Im-3m,0.0,False,True,0.1787,Ga: 0.7000; Pd: 0.3000
mp-2729,Sn7Os3,"Os, Sn",2,0.03351108299999339,Cubic,229,Im-3m,0.0,False,True,0.1100,Sn: 0.7000; Os: 0.3000
mp-1069288,MnGa4,"Ga, Mn",2,0.0,Cubic,229,Im-3m,0.0,False,True,0.1040,Mn: 0.2000; Ga: 0.8000
mp-30352,NaAg2,"Ag, Na",2,0.0,Cubic,227,Fd-3m,0.0,False,True,0.4714,Na: 0.3333; Ag: 0.6667
mp-1425,TiCr2,"Cr, Ti",2,0.08397102277777613,Cubic,227,Fd-3m,0.0,False,True,0.0566,Ti: 0.3333; Cr: 0.6667
mp-1934,LiZn,"Li, Zn",2,0.0,Cubic,227,Fd-3m,0.0,False,True,0.3350,Li: 0.5000; Zn: 0.5000
mp-2028,Be2Nb,"Be, Nb",2,0.021783169523808432,Cubic,227,Fd-3m,0.0,False,True,0.0141,Be: 0.6667; Nb: 0.3333
mp-695,TiCo2,"Co, Ti",2,0.050515650000001244,Cubic,227,Fd-3m,0.0,False,True,0.1603,Ti: 0.3333; Co: 0.6667
mp-1400,HfW2,"Hf, W",2,0.0,Cubic,227,Fd-3m,0.0,False,True,0.4997,Hf: 0.3333; W: 0.6667
mp-568430,BaRh2,"Ba, Rh",2,0.0,Cubic,227,Fd-3m,0.0,False,True,0.6553,Ba: 0.3333; Rh: 0.6667
mp-23163,CsBi2,"Bi, Cs",2,0.0,Cubic,227,Fd-3m,0.0,False,True,0.5798,Cs: 0.3333; Bi: 0.6667
mp-570113,BiAu2,"Au, Bi",2,0.0,Cubic,227,Fd-3m,0.0,False,True,0.2451,Bi: 0.3333; Au: 0.6667
mp-867501,Sc2Ni,"Ni, Sc",2,0.0,Cubic,227,Fd-3m,0.0,False,True,0.2593,Sc: 0.6667; Ni: 0.3333
mp-2762,YIr2,"Ir, Y",2,0.0,Cubic,227,Fd-3m,0.0,False,True,0.4620,Y: 0.3333; Ir: 0.6667
mp-19871,PbAu2,"Au, Pb",2,0.004742635416668861,Cubic,227,Fd-3m,0.0,False,True,0.0990,Pb: 0.3333; Au: 0.6667
mp-2295,CaNi2,"Ca, Ni",2,0.0,Cubic,227,Fd-3m,0.0,False,True,0.4290,Ca: 0.3333; Ni: 0.6667
mp-1768,LaOs2,"La, Os",2,0.028733843888897326,Cubic,227,Fd-3m,0.0,False,True,0.5185,La: 0.3333; Os: 0.6667
mp-30444,Be22W,"Be, W",2,0.017619141739129596,Cubic,227,Fd-3m,0.0,False,True,0.1611,Be: 0.9565; W: 0.0435
mp-551,BaAl2,"Al, Ba",2,0.04432060651515091,Cubic,227,Fd-3m,0.0,False,True,0.3394,Ba: 0.3333; Al: 0.6667
mp-318,SrIr2,"Ir, Sr",2,0.0,Cubic,227,Fd-3m,0.0,False,True,0.5893,Sr: 0.3333; Ir: 0.6667
mp-1019,YNi2,"Ni, Y",2,0.005393703529413152,Cubic,227,Fd-3m,0.0,False,True,0.3253,Y: 0.3333; Ni: 0.6667
mp-1190626,Hf2Rh,"Hf, Rh",2,0.0,Cubic,227,Fd-3m,0.0,False,True,0.4620,Hf: 0.6667; Rh: 0.3333
mp-1190841,Hf2Co,"Co, Hf",2,0.07458956791666793,Cubic,227,Fd-3m,0.0,False,True,0.2734,Hf: 0.6667; Co: 0.3333
mp-2694,LaAl2,"Al, La",2,0.0,Cubic,227,Fd-3m,0.0,False,True,0.2404,La: 0.3333; Al: 0.6667
mp-1328,SrRh2,"Rh, Sr",2,0.0,Cubic,227,Fd-3m,0.0,False,True,0.6270,Sr: 0.3333; Rh: 0.6667
mp-1294,YCo2,"Co, Y",2,0.0,Cubic,227,Fd-3m,0.0,False,True,0.3111,Y: 0.3333; Co: 0.6667
mp-1799,TaCo2,"Co, Ta",2,0.0417240186666632,Cubic,227,Fd-3m,0.0,False,True,0.1791,Ta: 0.3333; Co: 0.6667
mp-1638,SrAl2,"Al, Sr",2,0.013571949999999333,Cubic,227,Fd-3m,0.0,False,True,0.3111,Sr: 0.3333; Al: 0.6667
mp-833,CaPd2,"Ca, Pd",2,0.0,Cubic,227,Fd-3m,0.0,False,True,0.5657,Ca: 0.3333; Pd: 0.6667
mp-1191960,Zr2Pt,"Pt, Zr",2,0.010309776666666437,Cubic,227,Fd-3m,0.0,False,True,0.4478,Zr: 0.6667; Pt: 0.3333
mp-670,NbCo2,"Co, Nb",2,0.01888244755555668,Cubic,227,Fd-3m,0.0,False,True,0.1320,Nb: 0.3333; Co: 0.6667
mp-1718,ZrFe2,"Fe, Zr",2,0.0,Cubic,227,Fd-3m,0.0,False,True,0.2357,Zr: 0.3333; Fe: 0.6667
mp-18316,Mg2Pd,"Mg, Pd",2,0.00432952222222216,Cubic,227,Fd-3m,0.0,False,True,0.4196,Mg: 0.6667; Pd: 0.3333
mp-747,BaPt2,"Ba, Pt",2,0.0,Cubic,227,Fd-3m,0.0,False,True,0.6553,Ba: 0.3333; Pt: 0.6667
mp-540,ScFe2,"Fe, Sc",2,0.0,Cubic,227,Fd-3m,0.0,False,True,0.2216,Sc: 0.3333; Fe: 0.6667
mp-2263,ScIr2,"Ir, Sc",2,0.005982141666668994,Cubic,227,Fd-3m,0.0,False,True,0.3960,Sc: 0.3333; Ir: 0.6667
mp-1191437,Zr2Co,"Co, Zr",2,0.05912243416666385,Cubic,227,Fd-3m,0.0,False,True,0.2593,Zr: 0.6667; Co: 0.3333
mp-912,LaPt2,"La, Pt",2,0.0,Cubic,227,Fd-3m,0.0,False,True,0.5563,La: 0.3333; Pt: 0.6667
mp-1564,NaTl,"Na, Tl",2,0.0,Cubic,227,Fd-3m,0.0,False,True,0.3450,Na: 0.5000; Tl: 0.5000
mp-921,YRh2,"Rh, Y",2,0.0,Cubic,227,Fd-3m,0.0,False,True,0.4997,Y: 0.3333; Rh: 0.6667
mp-1191415,Hf2Os,"Hf, Os",2,0.06007384625000611,Cubic,227,Fd-3m,0.0,False,True,0.4243,Hf: 0.6667; Os: 0.3333
mp-675,ZrW2,"W, Zr",2,0.0,Cubic,227,Fd-3m,0.0,False,True,0.4855,Zr: 0.3333; W: 0.6667
mp-2031,Be2Cu,"Be, Cu",2,0.0,Cubic,227,Fd-3m,0.0,False,True,0.1556,Be: 0.6667; Cu: 0.3333
mp-2676,TaBe2,"Be, Ta",2,0.035414196428571465,Cubic,227,Fd-3m,0.0,False,True,0.0330,Ta: 0.3333; Be: 0.6667
mp-929,ZrCo2,"Co, Zr",2,0.03591941529411713,Cubic,227,Fd-3m,0.0,False,True,0.2593,Zr: 0.3333; Co: 0.6667
mp-2363,HfMo2,"Hf, Mo",2,0.0,Cubic,227,Fd-3m,0.0,False,True,0.4054,Hf: 0.3333; Mo: 0.6667
mp-1201271,HfZn22,"Hf, Zn",2,0.008313229565217739,Cubic,227,Fd-3m,0.0,False,True,0.0714,Hf: 0.0435; Zn: 0.9565
mp-30764,LiPt2,"Li, Pt",2,0.04333288833333171,Cubic,227,Fd-3m,0.0,False,True,0.6128,Li: 0.3333; Pt: 0.6667
mp-1463,LaIr2,"Ir, La",2,0.0,Cubic,227,Fd-3m,0.0,False,True,0.5185,La: 0.3333; Ir: 0.6667
mp-2019,LaRu2,"La, Ru",2,0.0017812852380956201,Cubic,227,Fd-3m,0.0,False,True,0.5185,La: 0.3333; Ru: 0.6667
mp-23279,KBi2,"Bi, K",2,0.0,Cubic,227,Fd-3m,0.0,False,True,0.5657,K: 0.3333; Bi: 0.6667
mp-1702,LaRh2,"La, Rh",2,0.0,Cubic,227,Fd-3m,0.0,False,True,0.5563,La: 0.3333; Rh: 0.6667
mp-16722,Al10V,"Al, V",2,0.023455367500000435,Cubic,227,Fd-3m,0.0,False,True,0.0057,Al: 0.9091; V: 0.0909
mp-640781,K17In41,"In, K",2,0.0,Cubic,227,Fd-3m,0.0,False,True,0.4370,K: 0.2931; In: 0.7069
mp-1307,LiGa,"Ga, Li",2,0.0,Cubic,227,Fd-3m,0.0,False,True,0.4150,Li: 0.5000; Ga: 0.5000
mp-22460,LiIn,"In, Li",2,0.0,Cubic,227,Fd-3m,0.0,False,True,0.4000,Li: 0.5000; In: 0.5000
mp-514,HfZn2,"Hf, Zn",2,0.0,Cubic,227,Fd-3m,0.0,False,True,0.1650,Hf: 0.3333; Zn: 0.6667
mp-1349,SrPt2,"Pt, Sr",2,0.0,Cubic,227,Fd-3m,0.0,False,True,0.6270,Sr: 0.3333; Pt: 0.6667
mp-2271,NaPt2,"Na, Pt",2,0.0,Cubic,227,Fd-3m,0.0,False,True,0.6364,Na: 0.3333; Pt: 0.6667
mp-850,ScNi2,"Ni, Sc",2,0.0,Cubic,227,Fd-3m,0.0,False,True,0.2593,Sc: 0.3333; Ni: 0.6667
mp-570436,CaIr2,"Ca, Ir",2,0.0,Cubic,227,Fd-3m,0.0,False,True,0.5657,Ca: 0.3333; Ir: 0.6667
mp-1038,MgCu2,"Cu, Mg",2,0.0,Cubic,227,Fd-3m,0.0,False,True,0.2781,Mg: 0.3333; Cu: 0.6667
mp-2322,YAl2,"Al, Y",2,0.0,Cubic,227,Fd-3m,0.0,False,True,0.1838,Y: 0.3333; Al: 0.6667
mp-2337,HfCo2,"Co, Hf",2,0.0238117552941155,Cubic,227,Fd-3m,0.0,False,True,0.2734,Hf: 0.3333; Co: 0.6667
mp-2404,CaAl2,"Al, Ca",2,0.0,Cubic,227,Fd-3m,0.0,False,True,0.2876,Ca: 0.3333; Al: 0.6667
mp-20628,NaIn,"In, Na",2,0.0,Cubic,227,Fd-3m,0.0,False,True,0.4250,Na: 0.5000; In: 0.5000
mp-2749,TiBe2,"Be, Ti",2,0.0,Cubic,227,Fd-3m,0.0,False,True,0.0141,Ti: 0.3333; Be: 0.6667
mp-17682,Zr2Fe,"Fe, Zr",2,0.06347475358333554,Cubic,227,Fd-3m,0.0,False,True,0.2357,Zr: 0.6667; Fe: 0.3333
mp-569364,Be22Re,"Be, Re",2,0.0,Cubic,227,Fd-3m,0.0,False,True,0.0673,Be: 0.9565; Re: 0.0435
mp-715,ZrIr2,"Ir, Zr",2,0.07824746874999988,Cubic,227,Fd-3m,0.0,False,True,0.4101,Zr: 0.3333; Ir: 0.6667
mp-1043,HfV2,"Hf, V",2,0.06383660500000232,Cubic,227,Fd-3m,0.0,False,True,0.1556,Hf: 0.3333; V: 0.6667
mp-11644,Li2Ca,"Ca, Li",2,0.004267985833332766,Cubic,227,Fd-3m,0.0,False,True,0.0094,Li: 0.6667; Ca: 0.3333
mp-985556,CdNi,"Cd, Ni",2,0.006270499166667776,Cubic,227,Fd-3m,0.0,False,True,0.1100,Cd: 0.5000; Ni: 0.5000
mp-2708,LaNi2,"La, Ni",2,0.023639428888890812,Cubic,227,Fd-3m,0.0,False,True,0.3818,La: 0.3333; Ni: 0.6667
mp-1191706,Zr2Ir,"Ir, Zr",2,0.048450425555557786,Cubic,227,Fd-3m,0.0,False,True,0.4101,Zr: 0.6667; Ir: 0.3333
mp-30708,HfNi2,"Hf, Ni",2,0.04818357683333474,Cubic,227,Fd-3m,0.0,False,True,0.2876,Hf: 0.3333; Ni: 0.6667
mp-2385,TaCr2,"Cr, Ta",2,0.05987628922222399,Cubic,227,Fd-3m,0.0,False,True,0.0754,Ta: 0.3333; Cr: 0.6667
mp-603,Be2Ag,"Ag, Be",2,0.02972060444444491,Cubic,227,Fd-3m,0.0,False,True,0.1697,Be: 0.6667; Ag: 0.3333