material_id,formula,elements,num_elements,energy_above_hull,crystal_system,spacegroup_number,spacegroup_symbol,band_gap,theoretical,is_metal,electronegativity_difference
mp-1184024,GaHg3,"Ga, Hg",2,0.06507774562499691,Hexagonal,194,P6_3/mmc,0.0,True,True,0.08227241335952165
mp-1105911,TiPd3,"Pd, Ti",2,0.0,Hexagonal,194,P6_3/mmc,0.0,False,True,0.2857883832488648
mp-861626,Tc3Rh,"Rh, Tc",2,0.0,Hexagonal,194,P6_3/mmc,0.0,True,True,0.1645448267190433
mp-1184713,Hf3Bi,"Bi, Hf",2,0.08616300041666491,Hexagonal,194,P6_3/mmc,0.0,True,True,0.31176914536239786
mp-1186058,Na3Hg,"Hg, Na",2,0.013812382708335846,Hexagonal,194,P6_3/mmc,0.0,True,True,0.46332359102467463
mp-1095669,HfTc2,"Hf, Tc",2,0.0,Hexagonal,194,P6_3/mmc,0.0,False,True,0.28284271247461895
mp-1079544,KTl,"K, Tl",2,0.05023011152777901,Hexagonal,194,P6_3/mmc,0.0,False,True,0.40000000000000013
mp-1184278,GaPd3,"Ga, Pd",2,0.05610788275000189,Hexagonal,194,P6_3/mmc,0.0,True,True,0.16887495373796557
mp-1185630,MgIn3,"In, Mg",2,0.0337658318055567,Hexagonal,194,P6_3/mmc,0.0,True,True,0.20351596988934306
mp-1187969,Zn3Ag,"Ag, Zn",2,0.010585677500001722,Hexagonal,194,P6_3/mmc,0.0,True,True,0.12124355652982141
mp-1186781,SrSn3,"Sn, Sr",2,0.03326302041666551,Hexagonal,194,P6_3/mmc,0.0,True,True,0.4373428289111415
mp-1015,ZrMn2,"Mn, Zr",2,0.003557800833334568,Hexagonal,194,P6_3/mmc,0.0,True,True,0.10370899457402696
mp-1183374,Ba3Ca,"Ba, Ca",2,0.02985033874999843,Hexagonal,194,P6_3/mmc,0.0,True,True,0.04763139720814412
mp-568901,NbFe2,"Fe, Nb",2,0.0921985224999986,Hexagonal,194,P6_3/mmc,0.0,False,True,0.10842303978193728
mp-1190697,ScFe2,"Fe, Sc",2,0.008439620000000758,Hexagonal,194,P6_3/mmc,0.0,False,True,0.22156012477178488
mp-1018795,Mg2Sn,"Mg, Sn",2,0.08313093666666571,Hexagonal,194,P6_3/mmc,0.0,True,True,0.30641293851417056
mp-1198059,Hf2Be17,"Be, Hf",2,0.0010128772807016517,Hexagonal,194,P6_3/mmc,0.0,False,True,0.08286089534780164
mp-1094602,LiMg3,"Li, Mg",2,0.01779471875000027,Hexagonal,194,P6_3/mmc,0.0,True,True,0.1428941916244324
mp-1084828,La3Al,"Al, La",2,0.0,Hexagonal,194,P6_3/mmc,0.0,False,True,0.22083647796503186
mp-974492,ReTc3,"Re, Tc",2,0.001906739999995466,Hexagonal,194,P6_3/mmc,0.0,True,True,0.0
mp-974411,Re3Tc,"Re, Tc",2,0.0051513925000037375,Hexagonal,194,P6_3/mmc,0.0,True,True,0.0
mp-865527,YAl3,"Al, Y",2,0.0,Hexagonal,194,P6_3/mmc,0.0,False,True,0.16887495373796557
mp-30434,BaTl2,"Ba, Tl",2,0.0,Hexagonal,194,P6_3/mmc,0.0,False,True,0.3441253001774532
mp-867770,BaHg3,"Ba, Hg",2,0.0,Hexagonal,194,P6_3/mmc,0.0,True,True,0.48064409910036343
mp-1185787,Mg3Pb,"Mg, Pb",2,0.012503427499998665,Hexagonal,194,P6_3/mmc,0.0,True,True,0.4416729559300637
mp-984612,Be3Ru,"Be, Ru",2,0.024404276249999413,Hexagonal,194,P6_3/mmc,0.0,True,True,0.2727980021920982
mp-863648,CaHg3,"Ca, Hg",2,0.0,Hexagonal,194,P6_3/mmc,0.0,False,True,0.4330127018922193
mp-1066274,PtPb,"Pb, Pt",2,0.0,Hexagonal,194,P6_3/mmc,0.0,False,True,0.025000000000000133
mp-1191401,HfFe2,"Fe, Hf",2,0.008608761666669906,Hexagonal,194,P6_3/mmc,0.0,False,True,0.2498443960192468
mp-1183663,Cd3Pb,"Cd, Pb",2,0.09102277125000313,Hexagonal,194,P6_3/mmc,0.0,True,True,0.2771281292110204
mp-1183940,Cs3K,"Cs, K",2,0.0,Hexagonal,194,P6_3/mmc,0.0,True,True,0.012990381056766543
mp-1185784,Mg3Hg,"Hg, Mg",2,0.0,Hexagonal,194,P6_3/mmc,0.0,True,True,0.2987787643056313
mp-1188062,Zr3Sc,"Sc, Zr",2,0.0,Hexagonal,194,P6_3/mmc,0.0,True,True,0.012990381056766592
mp-1184672,HfTi3,"Hf, Ti",2,0.02859406625000105,Hexagonal,194,P6_3/mmc,0.0,True,True,0.10392304845413264
mp-1189793,TiPt3,"Pt, Ti",2,0.002387665714280729,Hexagonal,194,P6_3/mmc,0.0,False,True,0.3204293994002422
mp-1186347,Ni3Rh,"Ni, Rh",2,0.024257211249999244,Hexagonal,194,P6_3/mmc,0.0,True,True,0.1602146997001211
mp-1080552,SrHg3,"Hg, Sr",2,0.0,Hexagonal,194,P6_3/mmc,0.0,False,True,0.4546633369868303
mp-1103315,Be2Ru,"Be, Ru",2,0.0,Hexagonal,194,P6_3/mmc,0.0,False,True,0.29698484809835
mp-1103211,CaPt2,"Ca, Pt",2,0.05739140749999194,Hexagonal,194,P6_3/mmc,0.0,False,True,0.6033977866125204
mp-1187822,Y3Tl,"Tl, Y",2,0.0595724837500029,Hexagonal,194,P6_3/mmc,0.0,True,True,0.17320508075688779
mp-1078,CaCd2,"Ca, Cd",2,0.004997881666668036,Hexagonal,194,P6_3/mmc,0.0,False,True,0.3252691193458118
mp-1185350,LiCa3,"Ca, Li",2,0.07511619531249991,Hexagonal,194,P6_3/mmc,0.0,True,True,0.008660254037844395
mp-1186861,Rb3Na,"Na, Rb",2,0.04444534903017194,Hexagonal,194,P6_3/mmc,0.0,True,True,0.04763139720814417
mp-864952,Mg3Ag,"Ag, Mg",2,0.021672128750000574,Hexagonal,194,P6_3/mmc,0.0,True,True,0.26846787517317594
mp-30853,Tl2Pt3,"Pt, Tl",2,0.0,Hexagonal,194,P6_3/mmc,0.0,False,True,0.3233326460473794
mp-1094338,SrMg3,"Mg, Sr",2,0.06567993749999967,Hexagonal,194,P6_3/mmc,0.0,True,True,0.15588457268119899
mp-1186229,NbRu3,"Nb, Ru",2,0.01640889249999944,Hexagonal,194,P6_3/mmc,0.0,True,True,0.2598076211353316
mp-864937,Mg3Sc,"Mg, Sc",2,0.0020139399999994367,Hexagonal,194,P6_3/mmc,0.0,True,True,0.021650635094610987
mp-1186974,Sc3Tl,"Sc, Tl",2,0.0,Hexagonal,194,P6_3/mmc,0.0,True,True,0.11258330249197702
mp-1095682,Fe2Mo,"Fe, Mo",2,0.001644767499998423,Hexagonal,194,P6_3/mmc,0.0,False,True,0.1555634918610405
mp-974326,OsRu3,"Os, Ru",2,0.0,Hexagonal,194,P6_3/mmc,0.0,True,True,0.0
mp-1183785,CoNi3,"Co, Ni",2,0.030216969999999677,Hexagonal,194,P6_3/mmc,0.0,True,True,0.012990381056766592
mp-1689,HfRe2,"Hf, Re",2,0.0,Hexagonal,194,P6_3/mmc,0.0,False,True,0.28284271247461895
mp-569940,K3Bi,"Bi, K",2,0.00044190874999960883,Hexagonal,194,P6_3/mmc,0.036900000000000044,False,False,0.5196152422706632
mp-11270,MnBe2,"Be, Mn",2,0.0,Hexagonal,194,P6_3/mmc,0.0,False,True,0.009428090415820642
mp-731,Mg3Hg,"Hg, Mg",2,0.017357135000001023,Hexagonal,194,P6_3/mmc,0.0,False,True,0.2987787643056313
mp-983509,Na3Cd,"Cd, Na",2,0.0032200737500005516,Hexagonal,194,P6_3/mmc,0.0,True,True,0.32908965343808666
mp-1187824,YBi3,"Bi, Y",2,0.07283482874999958,Hexagonal,194,P6_3/mmc,0.0,True,True,0.34641016151377546
mp-971794,YMg3,"Mg, Y",2,0.008624555000000811,Hexagonal,194,P6_3/mmc,0.0,True,True,0.038971143170299774
mp-30846,Sn3Pt2,"Pt, Sn",2,0.0,Hexagonal,194,P6_3/mmc,0.0,False,True,0.15676734353812333
mp-1184705,HgAu3,"Au, Hg",2,0.04260398825000067,Hexagonal,194,P6_3/mmc,0.0,True,True,0.23382685902179845
mp-1094241,MgSn2,"Mg, Sn",2,0.06635811083333554,Hexagonal,194,P6_3/mmc,0.0,True,True,0.30641293851417056
mp-866046,Ti3In,"In, Ti",2,0.0,Hexagonal,194,P6_3/mmc,0.0,False,True,0.10392304845413264
mp-985702,AgPb3,"Ag, Pb",2,0.09290706833333928,Hexagonal,194,P6_3/mmc,0.0,True,True,0.17320508075688779
mp-864735,Mn3Ir,"Ir, Mn",2,0.0,Hexagonal,194,P6_3/mmc,0.0,True,True,0.28145825622994264
mp-582360,TaPd3,"Pd, Ta",2,0.06884949800000228,Hexagonal,194,P6_3/mmc,0.0,False,True,0.3031088913245536
mp-865144,CdAu3,"Au, Cd",2,0.0,Hexagonal,194,P6_3/mmc,0.0,True,True,0.3680607966083865
mp-1064367,BaPd,"Ba, Pd",2,0.0,Hexagonal,194,P6_3/mmc,0.0,True,True,0.655
mp-21170,KPb2,"K, Pb",2,0.0025467358113999694,Hexagonal,194,P6_3/mmc,0.0,False,True,0.711820826394458
mp-978257,MgSn3,"Mg, Sn",2,0.05513213812499984,Hexagonal,194,P6_3/mmc,0.0,True,True,0.2814582562299425
mp-971909,ZnPd3,"Pd, Zn",2,0.027752594375001216,Hexagonal,194,P6_3/mmc,0.0,True,True,0.23815698604072075
mp-1187116,Sr3Ca,"Ca, Sr",2,0.005635927499998417,Hexagonal,194,P6_3/mmc,0.0,True,True,0.021650635094610987
mp-1094652,Mg3Ga,"Ga, Mg",2,0.03467303124999965,Hexagonal,194,P6_3/mmc,0.0,True,True,0.21650635094610965
mp-1184280,Fe3W,"Fe, W",2,0.0868913018749975,Hexagonal,194,P6_3/mmc,0.0,True,True,0.22949673200287615
mp-1094169,LaMg3,"La, Mg",2,0.04064889749999967,Hexagonal,194,P6_3/mmc,0.0,True,True,0.09093266739736605
mp-2406,Mg5Pd2,"Mg, Pd",2,0.0,Hexagonal,194,P6_3/mmc,0.0,False,True,0.40206101679283685
mp-1078584,Mn3Ga,"Ga, Mn",2,0.09738024353448083,Hexagonal,194,P6_3/mmc,0.0,False,True,0.11258330249197704
mp-1187126,Sr3Li,"Li, Sr",2,0.07493362088068167,Hexagonal,194,P6_3/mmc,0.0,True,True,0.012990381056766592
mp-1183648,Cd3Pd,"Cd, Pd",2,0.040520036317567065,Hexagonal,194,P6_3/mmc,0.0,True,True,0.22083647796503195
mp-984315,Be3Ni,"Be, Ni",2,0.005405039999999417,Hexagonal,194,P6_3/mmc,0.0,True,True,0.1472243186433545
mp-13365,SrZn2,"Sr, Zn",2,0.04626954833333308,Hexagonal,194,P6_3/mmc,0.0,True,True,0.3299831645537222
mp-1183425,Be3Co,"Be, Co",2,0.03437722374999996,Hexagonal,194,P6_3/mmc,0.0,True,True,0.13423393758658791
mp-11883,MgIr2,"Ir, Mg",2,0.0,Hexagonal,194,P6_3/mmc,0.0,False,True,0.4195500235040182
mp-1186230,NbRh3,"Nb, Rh",2,0.01599139625000312,Hexagonal,194,P6_3/mmc,0.0,True,True,0.294448637286709
mp-12678,TaMn2,"Mn, Ta",2,0.0,Hexagonal,194,P6_3/mmc,0.0,False,True,0.023570226039551605
mp-1196175,Y2Ni17,"Ni, Y",2,0.007135290263158289,Hexagonal,194,P6_3/mmc,0.0,False,True,0.21175562144438195
mp-864901,LaAu3,"Au, La",2,0.021509105434780018,Hexagonal,194,P6_3/mmc,0.0,True,True,0.6235382907247957
mp-1188040,ZrCu3,"Cu, Zr",2,0.08774148375000035,Hexagonal,194,P6_3/mmc,0.0,True,True,0.24681724007856495
mp-972895,ScAu3,"Au, Sc",2,0.06656842499999982,Hexagonal,194,P6_3/mmc,0.0,True,True,0.5109549882328188
mp-867264,Re3Os,"Os, Re",2,0.0,Hexagonal,194,P6_3/mmc,0.0,True,True,0.1299038105676659
mp-1094116,MgAl2,"Al, Mg",2,0.0,Hexagonal,194,P6_3/mmc,0.0,True,True,0.14142135623730953
mp-569095,Rb3Bi,"Bi, Rb",2,0.0,Hexagonal,194,P6_3/mmc,0.0,False,True,0.5196152422706632
mp-1185907,MgNi3,"Mg, Ni",2,0.09473628781250021,Hexagonal,194,P6_3/mmc,0.0,True,True,0.25980762113533157
mp-1184932,In3Pb,"In, Pb",2,0.035158029999998064,Hexagonal,194,P6_3/mmc,0.0,True,True,0.23815698604072066
mp-12657,HfAl2,"Al, Hf",2,0.0,Hexagonal,194,P6_3/mmc,0.0,False,True,0.14613540144521983
mp-583266,MgZn,"Mg, Zn",2,0.04893152480000018,Hexagonal,194,P6_3/mmc,0.0,True,True,0.16999999999999993
mp-1184723,HfZr3,"Hf, Zr",2,0.002438208750000115,Hexagonal,194,P6_3/mmc,0.0,True,True,0.012990381056766592
mp-30722,ScHg3,"Hg, Sc",2,0.0,Hexagonal,194,P6_3/mmc,0.0,False,True,0.2771281292110203
mp-1187478,TiCd3,"Cd, Ti",2,0.07280399875000043,Hexagonal,194,P6_3/mmc,0.0,True,True,0.06495190528383286
mp-30696,Cd5Cu2,"Cd, Cu",2,0.02407703857143062,Hexagonal,194,P6_3/mmc,0.0,False,True,0.09486832980505137
mp-976115,K3Rb,"K, Rb",2,0.037403925187500686,Hexagonal,194,P6_3/mmc,0.0,True,True,0.0
mp-1210170,Sc13Zn58,"Sc, Zn",2,0.0,Hexagonal,194,P6_3/mmc,0.3239000000000001,True,False,0.11215672572243189
mp-974625,Re3Ru,"Re, Ru",2,0.005148133749997896,Hexagonal,194,P6_3/mmc,0.0,True,True,0.1299038105676659
mp-30671,Ti2Ga,"Ga, Ti",2,0.0,Hexagonal,194,P6_3/mmc,0.0,False,True,0.12727922061357858
mp-1095650,CsNa2,"Cs, Na",2,0.010571340000000262,Hexagonal,194,P6_3/mmc,0.0,False,True,0.06599663291074444
mp-1183676,CdIn3,"Cd, In",2,0.04482023374999855,Hexagonal,194,P6_3/mmc,0.0,True,True,0.038971143170299774
mp-1186231,NbIr3,"Ir, Nb",2,0.0,Hexagonal,194,P6_3/mmc,0.0,True,True,0.2598076211353316
mp-11449,HfMn2,"Hf, Mn",2,0.0,Hexagonal,194,P6_3/mmc,0.0,False,True,0.11785113019775792
mp-1078766,GaFe3,"Fe, Ga",2,0.040149133749999066,Hexagonal,194,P6_3/mmc,0.0,False,True,0.008660254037844395
mp-19856,SnPt,"Pt, Sn",2,0.0,Hexagonal,194,P6_3/mmc,0.0,False,True,0.15999999999999992
mp-1183369,Ba3Sr,"Ba, Sr",2,0.017817212500001123,Hexagonal,194,P6_3/mmc,0.0,True,True,0.025980762113533135
mp-1183989,CsPb3,"Cs, Pb",2,0.05719688359375352,Hexagonal,194,P6_3/mmc,0.0,True,True,0.6668395609140177
mp-2572,SrMg2,"Mg, Sr",2,0.0,Hexagonal,194,P6_3/mmc,0.0,False,True,0.16970562748477144
mp-1186926,Ru3Rh,"Rh, Ru",2,0.0,Hexagonal,194,P6_3/mmc,0.0,True,True,0.034641016151377386
mp-1094598,Li3Mg,"Li, Mg",2,0.01025391666666664,Hexagonal,194,P6_3/mmc,0.0,True,True,0.1428941916244324
mp-2225,Be2Fe,"Be, Fe",2,0.0,Hexagonal,194,P6_3/mmc,0.0,False,True,0.12256517540566823
mp-569792,CuBi,"Bi, Cu",2,0.08541994749999882,Hexagonal,194,P6_3/mmc,0.0,True,True,0.06000000000000005
mp-864754,NaIn3,"In, Na",2,0.007774994999998341,Hexagonal,194,P6_3/mmc,0.0,True,True,0.3680607966083864
mp-1078964,Mg3Au,"Au, Mg",2,0.016496108333333925,Hexagonal,194,P6_3/mmc,0.0,False,True,0.5326056233274298
mp-570430,TaCo2,"Co, Ta",2,0.045713497833332895,Hexagonal,194,P6_3/mmc,0.0,False,True,0.179133717900592
mp-1187118,SnPb3,"Pb, Sn",2,0.08925198000000023,Hexagonal,194,P6_3/mmc,0.0,True,True,0.1602146997001212
mp-1185558,CsK3,"Cs, K",2,0.012771861250000072,Hexagonal,194,P6_3/mmc,0.0,True,True,0.012990381056766543
mp-1094466,Mg3Zr,"Mg, Zr",2,0.06476887374999984,Hexagonal,194,P6_3/mmc,0.0,True,True,0.008660254037844395
mp-1186033,Na3Ag,"Ag, Na",2,0.08077980937500051,Hexagonal,194,P6_3/mmc,0.0,True,True,0.43301270189221924
mp-30882,TiZn2,"Ti, Zn",2,0.003797694999998047,Hexagonal,194,P6_3/mmc,0.0,False,True,0.05185449728701342
mp-1103373,KSn2,"K, Sn",2,0.07330974700000015,Hexagonal,194,P6_3/mmc,0.0,False,True,0.5374011537017761
mp-1079229,Mg3Pd,"Mg, Pd",2,0.02301892583333176,Hexagonal,194,P6_3/mmc,0.0,False,True,0.3853813046840752
mp-567750,ScRu2,"Ru, Sc",2,0.0,Hexagonal,194,P6_3/mmc,0.0,False,True,0.3959797974644666
mp-2631,Ba4Al5,"Al, Ba",2,0.0,Hexagonal,194,P6_3/mmc,0.0,False,True,0.3577708763999664
mp-11557,ScRe2,"Re, Sc",2,0.0,Hexagonal,194,P6_3/mmc,0.0,False,True,0.25455844122715704
mp-1094653,Mg2Ga,"Ga, Mg",2,0.083412949444444,Hexagonal,194,P6_3/mmc,0.0,True,True,0.23570226039551584
mp-30335,Al23V4,"Al, V",2,0.02086618962962916,Hexagonal,194,P6_3/mmc,0.0,False,True,0.007104935590092845
mp-1187952,ZnAg3,"Ag, Zn",2,0.0,Hexagonal,194,P6_3/mmc,0.0,True,True,0.12124355652982143
mp-21294,Y2In,"In, Y",2,0.0,Hexagonal,194,P6_3/mmc,0.0,False,True,0.26398653164297775
mp-1935,BaMg2,"Ba, Mg",2,0.0,Hexagonal,194,P6_3/mmc,0.0,False,True,0.19798989873223333
mp-1188061,Zr3Sn,"Sn, Zr",2,0.036129972499999496,Hexagonal,194,P6_3/mmc,0.0,True,True,0.27279800219209815
mp-2294,Al3Ir,"Al, Ir",2,0.0,Hexagonal,194,P6_3/mmc,0.0,False,True,0.2554774941164094
mp-1102030,YTc2,"Tc, Y",2,0.0,Hexagonal,194,P6_3/mmc,0.0,False,True,0.3205550741379015
mp-861889,Sc3Tc,"Sc, Tc",2,0.04415189656250185,Hexagonal,194,P6_3/mmc,0.0,True,True,0.23382685902179834
mp-1184919,K3Na,"K, Na",2,0.02737546343750008,Hexagonal,194,P6_3/mmc,0.0,True,True,0.04763139720814417
mp-1014,ZrMn2,"Mn, Zr",2,0.0023527791666690945,Hexagonal,194,P6_3/mmc,0.0,False,True,0.10370899457402696
mp-1775,SnAu,"Au, Sn",2,0.0,Hexagonal,194,P6_3/mmc,0.0,False,True,0.29000000000000004
mp-11499,YMg2,"Mg, Y",2,0.01142841416666629,Hexagonal,194,P6_3/mmc,0.0,False,True,0.04242640687119289
mp-1185168,KRb3,"K, Rb",2,0.02857981881249949,Hexagonal,194,P6_3/mmc,0.0,True,True,0.0
mp-1184789,InHg3,"Hg, In",2,0.022958006249993446,Hexagonal,194,P6_3/mmc,0.0,True,True,0.09526279441628824
mp-20112,Ni3Sn,"Ni, Sn",2,0.000659422500000062,Hexagonal,194,P6_3/mmc,0.0,False,True,0.021650635094610987
mp-985287,AgAu3,"Ag, Au",2,0.011180219999999963,Hexagonal,194,P6_3/mmc,0.0,True,True,0.26413774815425384
mp-1183837,Co3Ni,"Co, Ni",2,0.0,Hexagonal,194,P6_3/mmc,0.0,True,True,0.012990381056766592
mp-1066078,BiPt,"Bi, Pt",2,0.0,Hexagonal,194,P6_3/mmc,0.0,False,True,0.1299999999999999
mp-2675,MgNi2,"Mg, Ni",2,0.0,Hexagonal,194,P6_3/mmc,0.0,False,True,0.28284271247461895
mp-1186010,MnAu3,"Au, Mn",2,0.02679416375000443,Hexagonal,194,P6_3/mmc,0.0,True,True,0.4286825748732971
mp-2557,Zr2Al,"Al, Zr",2,0.014479690999994688,Hexagonal,194,P6_3/mmc,0.0,False,True,0.13199326582148888
mp-1195853,La2Ir7,"Ir, La",2,0.015095589444449331,Hexagonal,194,P6_3/mmc,0.0,False,True,0.457313680605704
mp-11281,Be2V,"Be, V",2,0.0,Hexagonal,194,P6_3/mmc,0.0,False,True,0.028284271247461818
mp-1197416,Sc2Ni7,"Ni, Sc",2,0.0,Hexagonal,194,P6_3/mmc,0.0,False,True,0.22865684030285188
mp-975079,MnZn3,"Mn, Zn",2,0.013461058749999921,Hexagonal,194,P6_3/mmc,0.0,True,True,0.04330127018922188
mp-567612,ScOs2,"Os, Sc",2,0.0,Hexagonal,194,P6_3/mmc,0.0,False,True,0.3959797974644666
mp-1080608,SrIn3,"In, Sr",2,0.03182187300000061,Hexagonal,194,P6_3/mmc,0.0,False,True,0.35940054257054205
mp-30491,MgCd3,"Cd, Mg",2,0.012905597916667233,Hexagonal,194,P6_3/mmc,0.0,False,True,0.1645448267190433
mp-30490,Mg3Cd,"Cd, Mg",2,0.0,Hexagonal,194,P6_3/mmc,0.0,False,True,0.1645448267190433
mp-1192321,YFe3,"Fe, Y",2,0.0006096783333333633,Hexagonal,194,P6_3/mmc,0.0,False,True,0.26413774815425384
mp-1187884,Y3In,"In, Y",2,0.022471414999998274,Hexagonal,194,P6_3/mmc,0.0,True,True,0.24248711305964285
mp-582709,Y13Cd58,"Cd, Y",2,0.02564518476312516,Hexagonal,194,P6_3/mmc,0.0,False,True,0.18177124513635523
mp-1202791,YZn5,"Y, Zn",2,0.013238043888888384,Hexagonal,194,P6_3/mmc,0.0,False,True,0.1602515383874849
mp-1094645,MgGa3,"Ga, Mg",2,0.03274387968750059,Hexagonal,194,P6_3/mmc,0.0,True,True,0.21650635094610965
mp-30798,NbZn2,"Nb, Zn",2,0.0,Hexagonal,194,P6_3/mmc,0.0,False,True,0.0235702260395515
mp-862679,TaZn2,"Ta, Zn",2,0.0,Hexagonal,194,P6_3/mmc,0.0,False,True,0.07071067811865471
mp-977126,Li3Ag,"Ag, Li",2,0.0056665212499993345,Hexagonal,194,P6_3/mmc,0.0,True,True,0.41136206679760834
mp-973166,NaCd3,"Cd, Na",2,0.002285523750000351,Hexagonal,194,P6_3/mmc,0.0,True,True,0.32908965343808666
mp-866201,Ti3Bi,"Bi, Ti",2,0.009866854166662442,Hexagonal,194,P6_3/mmc,0.0,True,True,0.20784609690826528
mp-30783,Sr9Mg38,"Mg, Sr",2,0.010154846170212561,Hexagonal,194,P6_3/mmc,0.0,False,True,0.14165036432354247
mp-866108,HfZn3,"Hf, Zn",2,0.0,Hexagonal,194,P6_3/mmc,0.0,True,True,0.15155444566227672
mp-30577,CsK2,"Cs, K",2,0.007583886250001726,Hexagonal,194,P6_3/mmc,0.0,False,True,0.014142135623730909
mp-1101983,NbCo2,"Co, Nb",2,0.020173794222221986,Hexagonal,194,P6_3/mmc,0.0,False,True,0.13199326582148876
mp-1823,Ti3Al,"Al, Ti",2,0.0,Hexagonal,194,P6_3/mmc,0.0,False,True,0.03031088913245538
mp-568636,TiCr2,"Cr, Ti",2,0.0913164519444436,Hexagonal,194,P6_3/mmc,0.0,False,True,0.05656854249492375
mp-510439,In2Pt3,"In, Pt",2,0.0,Hexagonal,194,P6_3/mmc,0.0,False,True,0.24494897427831772
mp-1183661,Cd3Hg,"Cd, Hg",2,0.033984154374998354,Hexagonal,194,P6_3/mmc,0.0,True,True,0.13423393758658803
mp-1186988,ScNi3,"Ni, Sc",2,0.03301964208333352,Hexagonal,194,P6_3/mmc,0.0,True,True,0.23815698604072055
mp-1186964,Sc3Bi,"Bi, Sc",2,0.07328208833333338,Hexagonal,194,P6_3/mmc,0.0,True,True,0.2857883832488647
mp-2646976,Li3Bi,"Bi, Li",2,0.010822448749999491,Hexagonal,194,P6_3/mmc,0.4030999999999998,True,False,0.45033320996790815
mp-1183847,CoPd3,"Co, Pd",2,0.04705379874999949,Hexagonal,194,P6_3/mmc,0.0,True,True,0.13856406460551032
mp-570904,GaNi2,"Ga, Ni",2,0.0321389691666667,Hexagonal,194,P6_3/mmc,0.0,False,True,0.047140452079103105
mp-861630,Tc3Ru,"Ru, Tc",2,0.0,Hexagonal,194,P6_3/mmc,0.0,True,True,0.1299038105676659
mp-1039383,CaMg3,"Ca, Mg",2,0.03320133374999923,Hexagonal,194,P6_3/mmc,0.0,True,True,0.13423393758658803
mp-1184676,Hf3Sn,"Hf, Sn",2,0.0345281679166618,Hexagonal,194,P6_3/mmc,0.0,True,True,0.28578838324886474
mp-862589,Re3Pt,"Pt, Re",2,0.0,Hexagonal,194,P6_3/mmc,0.0,True,True,0.1645448267190433
mp-865798,GaCu3,"Cu, Ga",2,0.0,Hexagonal,194,P6_3/mmc,0.0,True,True,0.03897114317029968
mp-974571,Mn3Be,"Be, Mn",2,0.086509186293104,Hexagonal,194,P6_3/mmc,0.0,True,True,0.008660254037844393
mp-1187248,TaOs3,"Os, Ta",2,0.029550821249998194,Hexagonal,194,P6_3/mmc,0.0,True,True,0.3031088913245536
mp-1791,Al5Rh2,"Al, Rh",2,0.0,Hexagonal,194,P6_3/mmc,0.0,False,True,0.302675147473259
mp-1191083,HfMo2,"Hf, Mo",2,0.008370171249993064,Hexagonal,194,P6_3/mmc,0.0,False,True,0.4054078878802873
mp-1094478,MgZn3,"Mg, Zn",2,0.04111436172618932,Hexagonal,194,P6_3/mmc,0.0,True,True,0.1472243186433545
mp-861610,Tc3Pd,"Pd, Tc",2,0.0,Hexagonal,194,P6_3/mmc,0.0,True,True,0.1299038105676659
mp-865212,Fe3Re,"Fe, Re",2,0.000877158958330071,Hexagonal,194,P6_3/mmc,0.0,True,True,0.030310889132455283
mp-867212,TcOs3,"Os, Tc",2,0.0,Hexagonal,194,P6_3/mmc,0.0,True,True,0.1299038105676659
mp-1949,TiMn2,"Mn, Ti",2,0.0,Hexagonal,194,P6_3/mmc,0.0,False,True,0.004714045207910321
mp-1184681,Hf3Sc,"Hf, Sc",2,0.015776382250002996,Hexagonal,194,P6_3/mmc,0.0,True,True,0.025980762113533184
mp-16775,CdCu2,"Cd, Cu",2,0.012524586666666337,Hexagonal,194,P6_3/mmc,0.0,False,True,0.09899494936611664
mp-542377,Na9Sn4,"Na, Sn",2,0.0,Hexagonal,194,P6_3/mmc,0.0,True,True,0.47538461538461535