material_id,formula,elements,num_elements,energy_above_hull,crystal_system,spacegroup_number,spacegroup_symbol,band_gap,theoretical,is_metal,electronegativity_difference,atomic_concentrations
mp-1689,HfRe2,"Hf, Re",2,0.0,Hexagonal,194,P6_3/mmc,0.0,False,True,0.2828,Hf: 0.3333; Re: 0.6667
mp-11270,MnBe2,"Be, Mn",2,0.0,Hexagonal,194,P6_3/mmc,0.0,False,True,0.0094,Mn: 0.3333; Be: 0.6667
mp-731,Mg3Hg,"Hg, Mg",2,0.017357135000001023,Hexagonal,194,P6_3/mmc,0.0,False,True,0.2988,Mg: 0.7500; Hg: 0.2500
mp-30846,Sn3Pt2,"Pt, Sn",2,0.0,Hexagonal,194,P6_3/mmc,0.0,False,True,0.1568,Sn: 0.6000; Pt: 0.4000
mp-866046,Ti3In,"In, Ti",2,0.0,Hexagonal,194,P6_3/mmc,0.0,False,True,0.1039,Ti: 0.7500; In: 0.2500
mp-582360,TaPd3,"Pd, Ta",2,0.06884949800000228,Hexagonal,194,P6_3/mmc,0.0,False,True,0.3031,Ta: 0.2500; Pd: 0.7500
mp-21170,KPb2,"K, Pb",2,0.0025467358113999694,Hexagonal,194,P6_3/mmc,0.0,False,True,0.7118,K: 0.3333; Pb: 0.6667
mp-2406,Mg5Pd2,"Mg, Pd",2,0.0,Hexagonal,194,P6_3/mmc,0.0,False,True,0.4021,Mg: 0.7143; Pd: 0.2857
mp-1078584,Mn3Ga,"Ga, Mn",2,0.09738024353448083,Hexagonal,194,P6_3/mmc,0.0,False,True,0.1126,Mn: 0.7500; Ga: 0.2500
mp-11883,MgIr2,"Ir, Mg",2,0.0,Hexagonal,194,P6_3/mmc,0.0,False,True,0.4196,Mg: 0.3333; Ir: 0.6667
mp-12678,TaMn2,"Mn, Ta",2,0.0,Hexagonal,194,P6_3/mmc,0.0,False,True,0.0236,Ta: 0.3333; Mn: 0.6667
mp-1196175,Y2Ni17,"Ni, Y",2,0.007135290263158289,Hexagonal,194,P6_3/mmc,0.0,False,True,0.2118,Y: 0.1053; Ni: 0.8947
mp-569095,Rb3Bi,"Bi, Rb",2,0.0,Hexagonal,194,P6_3/mmc,0.0,False,True,0.5196,Rb: 0.7500; Bi: 0.2500
mp-12657,HfAl2,"Al, Hf",2,0.0,Hexagonal,194,P6_3/mmc,0.0,False,True,0.1461,Hf: 0.3333; Al: 0.6667
mp-30722,ScHg3,"Hg, Sc",2,0.0,Hexagonal,194,P6_3/mmc,0.0,False,True,0.2771,Sc: 0.2500; Hg: 0.7500
mp-30696,Cd5Cu2,"Cd, Cu",2,0.02407703857143062,Hexagonal,194,P6_3/mmc,0.0,False,True,0.0949,Cd: 0.7143; Cu: 0.2857
mp-30671,Ti2Ga,"Ga, Ti",2,0.0,Hexagonal,194,P6_3/mmc,0.0,False,True,0.1273,Ti: 0.6667; Ga: 0.3333
mp-1095650,CsNa2,"Cs, Na",2,0.010571340000000262,Hexagonal,194,P6_3/mmc,0.0,False,True,0.0660,Cs: 0.3333; Na: 0.6667
mp-11449,HfMn2,"Hf, Mn",2,0.0,Hexagonal,194,P6_3/mmc,0.0,False,True,0.1179,Hf: 0.3333; Mn: 0.6667
mp-1078766,GaFe3,"Fe, Ga",2,0.040149133749999066,Hexagonal,194,P6_3/mmc,0.0,False,True,0.0087,Ga: 0.2500; Fe: 0.7500
mp-19856,SnPt,"Pt, Sn",2,0.0,Hexagonal,194,P6_3/mmc,0.0,False,True,0.1600,Sn: 0.5000; Pt: 0.5000
mp-2572,SrMg2,"Mg, Sr",2,0.0,Hexagonal,194,P6_3/mmc,0.0,False,True,0.1697,Sr: 0.3333; Mg: 0.6667
mp-2225,Be2Fe,"Be, Fe",2,0.0,Hexagonal,194,P6_3/mmc,0.0,False,True,0.1226,Be: 0.6667; Fe: 0.3333
mp-1078964,Mg3Au,"Au, Mg",2,0.016496108333333925,Hexagonal,194,P6_3/mmc,0.0,False,True,0.5326,Mg: 0.7500; Au: 0.2500
mp-570430,TaCo2,"Co, Ta",2,0.045713497833332895,Hexagonal,194,P6_3/mmc,0.0,False,True,0.1791,Ta: 0.3333; Co: 0.6667
mp-30882,TiZn2,"Ti, Zn",2,0.003797694999998047,Hexagonal,194,P6_3/mmc,0.0,False,True,0.0519,Ti: 0.3333; Zn: 0.6667
mp-1103373,KSn2,"K, Sn",2,0.07330974700000015,Hexagonal,194,P6_3/mmc,0.0,False,True,0.5374,K: 0.3333; Sn: 0.6667
mp-1079229,Mg3Pd,"Mg, Pd",2,0.02301892583333176,Hexagonal,194,P6_3/mmc,0.0,False,True,0.3854,Mg: 0.7500; Pd: 0.2500
mp-567750,ScRu2,"Ru, Sc",2,0.0,Hexagonal,194,P6_3/mmc,0.0,False,True,0.3960,Sc: 0.3333; Ru: 0.6667
mp-2631,Ba4Al5,"Al, Ba",2,0.0,Hexagonal,194,P6_3/mmc,0.0,False,True,0.3578,Ba: 0.4444; Al: 0.5556
mp-11557,ScRe2,"Re, Sc",2,0.0,Hexagonal,194,P6_3/mmc,0.0,False,True,0.2546,Sc: 0.3333; Re: 0.6667
mp-30335,Al23V4,"Al, V",2,0.02086618962962916,Hexagonal,194,P6_3/mmc,0.0,False,True,0.0071,Al: 0.8519; V: 0.1481
mp-21294,Y2In,"In, Y",2,0.0,Hexagonal,194,P6_3/mmc,0.0,False,True,0.2640,Y: 0.6667; In: 0.3333
mp-1935,BaMg2,"Ba, Mg",2,0.0,Hexagonal,194,P6_3/mmc,0.0,False,True,0.1980,Ba: 0.3333; Mg: 0.6667
mp-2294,Al3Ir,"Al, Ir",2,0.0,Hexagonal,194,P6_3/mmc,0.0,False,True,0.2555,Al: 0.7500; Ir: 0.2500
mp-1102030,YTc2,"Tc, Y",2,0.0,Hexagonal,194,P6_3/mmc,0.0,False,True,0.3206,Y: 0.3333; Tc: 0.6667
mp-1014,ZrMn2,"Mn, Zr",2,0.0023527791666690945,Hexagonal,194,P6_3/mmc,0.0,False,True,0.1037,Zr: 0.3333; Mn: 0.6667
mp-1775,SnAu,"Au, Sn",2,0.0,Hexagonal,194,P6_3/mmc,0.0,False,True,0.2900,Sn: 0.5000; Au: 0.5000
mp-11499,YMg2,"Mg, Y",2,0.01142841416666629,Hexagonal,194,P6_3/mmc,0.0,False,True,0.0424,Y: 0.3333; Mg: 0.6667
mp-20112,Ni3Sn,"Ni, Sn",2,0.000659422500000062,Hexagonal,194,P6_3/mmc,0.0,False,True,0.0217,Ni: 0.7500; Sn: 0.2500
mp-1066078,BiPt,"Bi, Pt",2,0.0,Hexagonal,194,P6_3/mmc,0.0,False,True,0.1300,Bi: 0.5000; Pt: 0.5000
mp-2675,MgNi2,"Mg, Ni",2,0.0,Hexagonal,194,P6_3/mmc,0.0,False,True,0.2828,Mg: 0.3333; Ni: 0.6667
mp-2557,Zr2Al,"Al, Zr",2,0.014479690999994688,Hexagonal,194,P6_3/mmc,0.0,False,True,0.1320,Zr: 0.6667; Al: 0.3333
mp-1195853,La2Ir7,"Ir, La",2,0.015095589444449331,Hexagonal,194,P6_3/mmc,0.0,False,True,0.4573,La: 0.2222; Ir: 0.7778
mp-11281,Be2V,"Be, V",2,0.0,Hexagonal,194,P6_3/mmc,0.0,False,True,0.0283,Be: 0.6667; V: 0.3333
mp-1197416,Sc2Ni7,"Ni, Sc",2,0.0,Hexagonal,194,P6_3/mmc,0.0,False,True,0.2287,Sc: 0.2222; Ni: 0.7778
mp-567612,ScOs2,"Os, Sc",2,0.0,Hexagonal,194,P6_3/mmc,0.0,False,True,0.3960,Sc: 0.3333; Os: 0.6667
mp-1080608,SrIn3,"In, Sr",2,0.03182187300000061,Hexagonal,194,P6_3/mmc,0.0,False,True,0.3594,Sr: 0.2500; In: 0.7500
mp-30491,MgCd3,"Cd, Mg",2,0.012905597916667233,Hexagonal,194,P6_3/mmc,0.0,False,True,0.1645,Mg: 0.2500; Cd: 0.7500
mp-30490,Mg3Cd,"Cd, Mg",2,0.0,Hexagonal,194,P6_3/mmc,0.0,False,True,0.1645,Mg: 0.7500; Cd: 0.2500
mp-1192321,YFe3,"Fe, Y",2,0.0006096783333333633,Hexagonal,194,P6_3/mmc,0.0,False,True,0.2641,Y: 0.2500; Fe: 0.7500
mp-582709,Y13Cd58,"Cd, Y",2,0.02564518476312516,Hexagonal,194,P6_3/mmc,0.0,False,True,0.1818,Y: 0.1831; Cd: 0.8169
mp-1202791,YZn5,"Y, Zn",2,0.013238043888888384,Hexagonal,194,P6_3/mmc,0.0,False,True,0.1603,Y: 0.1667; Zn: 0.8333
mp-30798,NbZn2,"Nb, Zn",2,0.0,Hexagonal,194,P6_3/mmc,0.0,False,True,0.0236,Nb: 0.3333; Zn: 0.6667
mp-862679,TaZn2,"Ta, Zn",2,0.0,Hexagonal,194,P6_3/mmc,0.0,False,True,0.0707,Ta: 0.3333; Zn: 0.6667
mp-30783,Sr9Mg38,"Mg, Sr",2,0.010154846170212561,Hexagonal,194,P6_3/mmc,0.0,False,True,0.1417,Sr: 0.1915; Mg: 0.8085
mp-30577,CsK2,"Cs, K",2,0.007583886250001726,Hexagonal,194,P6_3/mmc,0.0,False,True,0.0141,Cs: 0.3333; K: 0.6667
mp-1101983,NbCo2,"Co, Nb",2,0.020173794222221986,Hexagonal,194,P6_3/mmc,0.0,False,True,0.1320,Nb: 0.3333; Co: 0.6667
mp-1823,Ti3Al,"Al, Ti",2,0.0,Hexagonal,194,P6_3/mmc,0.0,False,True,0.0303,Ti: 0.7500; Al: 0.2500
mp-568636,TiCr2,"Cr, Ti",2,0.0913164519444436,Hexagonal,194,P6_3/mmc,0.0,False,True,0.0566,Ti: 0.3333; Cr: 0.6667
mp-510439,In2Pt3,"In, Pt",2,0.0,Hexagonal,194,P6_3/mmc,0.0,False,True,0.2449,In: 0.4000; Pt: 0.6000
mp-570904,GaNi2,"Ga, Ni",2,0.0321389691666667,Hexagonal,194,P6_3/mmc,0.0,False,True,0.0471,Ga: 0.3333; Ni: 0.6667
mp-1791,Al5Rh2,"Al, Rh",2,0.0,Hexagonal,194,P6_3/mmc,0.0,False,True,0.3027,Al: 0.7143; Rh: 0.2857
mp-1191083,HfMo2,"Hf, Mo",2,0.008370171249993064,Hexagonal,194,P6_3/mmc,0.0,False,True,0.4054,Hf: 0.3333; Mo: 0.6667
mp-1949,TiMn2,"Mn, Ti",2,0.0,Hexagonal,194,P6_3/mmc,0.0,False,True,0.0047,Ti: 0.3333; Mn: 0.6667
mp-16775,CdCu2,"Cd, Cu",2,0.012524586666666337,Hexagonal,194,P6_3/mmc,0.0,False,True,0.0990,Cd: 0.3333; Cu: 0.6667
mp-261,Ba3Al5,"Al, Ba",2,0.007397125714286634,Hexagonal,194,P6_3/mmc,0.0,False,True,0.3486,Ba: 0.3750; Al: 0.6250
mp-7759,BaSn3,"Ba, Sn",2,0.0,Hexagonal,194,P6_3/mmc,0.0,False,True,0.4633,Ba: 0.2500; Sn: 0.7500
mp-16511,Mn3Al10,"Al, Mn",2,0.009341258520708884,Hexagonal,194,P6_3/mmc,0.0,False,True,0.0253,Mn: 0.2308; Al: 0.7692
mp-30875,Ti2Sn,"Sn, Ti",2,0.0,Hexagonal,194,P6_3/mmc,0.0,False,True,0.1980,Ti: 0.6667; Sn: 0.3333
mp-567526,SrMg4,"Mg, Sr",2,0.04522772922222229,Hexagonal,194,P6_3/mmc,0.0,False,True,0.1440,Sr: 0.2000; Mg: 0.8000
mp-1116,Sr2Mg17,"Mg, Sr",2,0.023332300263158468,Hexagonal,194,P6_3/mmc,0.0,False,True,0.1105,Sr: 0.1053; Mg: 0.8947
mp-20074,SrIn2,"In, Sr",2,0.0,Hexagonal,194,P6_3/mmc,0.0,False,True,0.3913,Sr: 0.3333; In: 0.6667
mp-30672,Ti3Ga,"Ga, Ti",2,0.0,Hexagonal,194,P6_3/mmc,0.0,False,True,0.1169,Ti: 0.7500; Ga: 0.2500
mp-12735,KAg2,"Ag, K",2,0.009690792916664748,Hexagonal,194,P6_3/mmc,0.0,False,True,0.5233,K: 0.3333; Ag: 0.6667
mp-11220,Sc2Al,"Al, Sc",2,0.0,Hexagonal,194,P6_3/mmc,0.0,False,True,0.1179,Sc: 0.6667; Al: 0.3333
mp-1201649,Ti2Be17,"Be, Ti",2,0.0,Hexagonal,194,P6_3/mmc,0.0,False,True,0.0092,Ti: 0.1053; Be: 0.8947
mp-20382,Ti6Sn5,"Sn, Ti",2,0.0,Hexagonal,194,P6_3/mmc,0.0,False,True,0.2091,Ti: 0.5455; Sn: 0.4545
mp-30494,ScCd3,"Cd, Sc",2,0.0,Hexagonal,194,P6_3/mmc,0.0,False,True,0.1429,Sc: 0.2500; Cd: 0.7500
mp-570670,YOs2,"Os, Y",2,0.0,Hexagonal,194,P6_3/mmc,0.0,False,True,0.4620,Y: 0.3333; Os: 0.6667
mp-1191413,YRh3,"Rh, Y",2,0.0,Hexagonal,194,P6_3/mmc,0.0,False,True,0.4590,Y: 0.2500; Rh: 0.7500
mp-570684,ZrOs2,"Os, Zr",2,0.0,Hexagonal,194,P6_3/mmc,0.0,False,True,0.4101,Zr: 0.3333; Os: 0.6667
mp-570466,Li2Ca,"Ca, Li",2,0.0,Hexagonal,194,P6_3/mmc,0.0,False,True,0.0094,Li: 0.6667; Ca: 0.3333
mp-1190774,Ta6Ga5,"Ga, Ta",2,0.05531340279220842,Hexagonal,194,P6_3/mmc,0.0,False,True,0.1544,Ta: 0.5455; Ga: 0.4545
mp-11282,Be2W,"Be, W",2,0.0,Hexagonal,194,P6_3/mmc,0.0,False,True,0.3724,Be: 0.6667; W: 0.3333
mp-11482,MoIr3,"Ir, Mo",2,0.0,Hexagonal,194,P6_3/mmc,0.0,False,True,0.0173,Mo: 0.2500; Ir: 0.7500
mp-12109,ZrRe2,"Re, Zr",2,0.0,Hexagonal,194,P6_3/mmc,0.0,False,True,0.2687,Zr: 0.3333; Re: 0.6667
mp-30866,Rh3W,"Rh, W",2,0.0,Hexagonal,194,P6_3/mmc,0.0,False,True,0.0346,Rh: 0.7500; W: 0.2500
mp-21068,CaIn2,"Ca, In",2,0.0,Hexagonal,194,P6_3/mmc,0.0,False,True,0.3677,Ca: 0.3333; In: 0.6667
mp-570786,KNa2,"K, Na",2,0.0029021212500008886,Hexagonal,194,P6_3/mmc,0.0,False,True,0.0519,K: 0.3333; Na: 0.6667
mp-1102895,TaZn2,"Ta, Zn",2,0.005104389583337365,Hexagonal,194,P6_3/mmc,0.0,False,True,0.0707,Ta: 0.3333; Zn: 0.6667
mp-13138,Cu3Sn,"Cu, Sn",2,0.03600903500000108,Hexagonal,194,P6_3/mmc,0.0,False,True,0.0260,Cu: 0.7500; Sn: 0.2500
mp-1196012,Y2Fe17,"Fe, Y",2,0.018991131052631616,Hexagonal,194,P6_3/mmc,0.0,False,True,0.1872,Y: 0.1053; Fe: 0.8947
mp-30489,La2Cd17,"Cd, La",2,0.02209769352941371,Hexagonal,194,P6_3/mmc,0.0,False,True,0.1811,La: 0.1053; Cd: 0.8947
mp-12659,Mn2Nb,"Mn, Nb",2,0.0,Hexagonal,194,P6_3/mmc,0.0,False,True,0.0236,Mn: 0.6667; Nb: 0.3333
mp-22469,InNi3,"In, Ni",2,0.05902754499999929,Hexagonal,194,P6_3/mmc,0.0,False,True,0.0563,In: 0.2500; Ni: 0.7500
mp-196,Al5Co2,"Al, Co",2,0.0,Hexagonal,194,P6_3/mmc,0.0,False,True,0.1220,Al: 0.7143; Co: 0.2857
mp-1079267,LiHg3,"Hg, Li",2,0.0,Hexagonal,194,P6_3/mmc,0.0,False,True,0.4417,Li: 0.2500; Hg: 0.7500
mp-862332,LaHg3,"Hg, La",2,0.0,Hexagonal,194,P6_3/mmc,0.0,False,True,0.3897,La: 0.2500; Hg: 0.7500
mp-31348,Sc2In,"In, Sc",2,0.0,Hexagonal,194,P6_3/mmc,0.0,False,True,0.1980,Sc: 0.6667; In: 0.3333
mp-864931,MgCo2,"Co, Mg",2,0.018079217499996858,Hexagonal,194,P6_3/mmc,0.0,False,True,0.2687,Mg: 0.3333; Co: 0.6667
mp-22211,V3Sn,"Sn, V",2,0.03979231499999969,Hexagonal,194,P6_3/mmc,0.0,False,True,0.1429,V: 0.7500; Sn: 0.2500
mp-1192425,YCo3,"Co, Y",2,0.04071238016025536,Hexagonal,194,P6_3/mmc,0.0,False,True,0.2858,Y: 0.2500; Co: 0.7500
mp-30752,La2Mg17,"La, Mg",2,0.01195087105263104,Hexagonal,194,P6_3/mmc,0.0,False,True,0.0644,La: 0.1053; Mg: 0.8947
mp-30739,Mg3Ir,"Ir, Mg",2,0.014463810416667666,Hexagonal,194,P6_3/mmc,0.0,False,True,0.3854,Mg: 0.7500; Ir: 0.2500
mp-2432,CaMg2,"Ca, Mg",2,0.0,Hexagonal,194,P6_3/mmc,0.0,False,True,0.1461,Ca: 0.3333; Mg: 0.6667
mp-1191422,TiCo2,"Co, Ti",2,0.051720578333334544,Hexagonal,194,P6_3/mmc,0.0,False,True,0.1603,Ti: 0.3333; Co: 0.6667
mp-568186,YRu2,"Ru, Y",2,0.0,Hexagonal,194,P6_3/mmc,0.0,False,True,0.4620,Y: 0.3333; Ru: 0.6667
mp-21030,Ti3Sn,"Sn, Ti",2,0.0026197112500021547,Hexagonal,194,P6_3/mmc,0.0,False,True,0.1819,Ti: 0.7500; Sn: 0.2500
mp-569979,ZrRu2,"Ru, Zr",2,0.08155004833333024,Hexagonal,194,P6_3/mmc,0.0,False,True,0.4101,Zr: 0.3333; Ru: 0.6667
mp-569866,Cs6K7,"Cs, K",2,0.004067151250001899,Hexagonal,194,P6_3/mmc,0.0,False,True,0.0150,Cs: 0.4615; K: 0.5385
mp-571557,V6Ga5,"Ga, V",2,0.0,Hexagonal,194,P6_3/mmc,0.0,False,True,0.0896,V: 0.5455; Ga: 0.4545
mp-23188,In2Bi,"Bi, In",2,0.061025692777775475,Hexagonal,194,P6_3/mmc,0.0,False,True,0.1131,In: 0.6667; Bi: 0.3333
mp-1190681,ZrFe2,"Fe, Zr",2,0.0024678108333340276,Hexagonal,194,P6_3/mmc,0.0,False,True,0.2357,Zr: 0.3333; Fe: 0.6667
mp-19713,Sc3In,"In, Sc",2,0.0,Hexagonal,194,P6_3/mmc,0.0,False,True,0.1819,Sc: 0.7500; In: 0.2500
mp-570463,TaCo2,"Co, Ta",2,0.03950635824999793,Hexagonal,194,P6_3/mmc,0.0,False,True,0.1791,Ta: 0.3333; Co: 0.6667
mp-2772,ZrAl2,"Al, Zr",2,0.0,Hexagonal,194,P6_3/mmc,0.0,False,True,0.1320,Zr: 0.3333; Al: 0.6667
mp-485,ZrNi3,"Ni, Zr",2,0.0,Hexagonal,194,P6_3/mmc,0.0,False,True,0.2511,Zr: 0.2500; Ni: 0.7500
mp-542614,VCo3,"Co, V",2,0.08504460749999865,Hexagonal,194,P6_3/mmc,0.0,False,True,0.1083,V: 0.2500; Co: 0.7500
mp-1124,MgZn2,"Mg, Zn",2,0.0,Hexagonal,194,P6_3/mmc,0.0,False,True,0.1603,Mg: 0.3333; Zn: 0.6667
mp-1102043,LaOs2,"La, Os",2,0.002787558055555195,Hexagonal,194,P6_3/mmc,0.0,False,True,0.5185,La: 0.3333; Os: 0.6667
mp-569265,Mg3Pt,"Mg, Pt",2,0.018898404999998508,Hexagonal,194,P6_3/mmc,0.0,False,True,0.4200,Mg: 0.7500; Pt: 0.2500
mp-11284,CaGa2,"Ca, Ga",2,0.0,Hexagonal,194,P6_3/mmc,0.0,False,True,0.3818,Ca: 0.3333; Ga: 0.6667
mp-12174,HfNi3,"Hf, Ni",2,0.0,Hexagonal,194,P6_3/mmc,0.0,False,True,0.2641,Hf: 0.2500; Ni: 0.7500
mp-31498,BaPt,"Ba, Pt",2,0.0,Hexagonal,194,P6_3/mmc,0.0,False,True,0.6950,Ba: 0.5000; Pt: 0.5000
mp-1095697,LaMg2,"La, Mg",2,0.028436601666667283,Hexagonal,194,P6_3/mmc,0.0,False,True,0.0990,La: 0.3333; Mg: 0.6667
mp-30745,Ir3W,"Ir, W",2,0.0,Hexagonal,194,P6_3/mmc,0.0,False,True,0.0693,Ir: 0.7500; W: 0.2500
mp-1079240,LiAl,"Al, Li",2,0.08662110999999939,Hexagonal,194,P6_3/mmc,0.0,False,True,0.3150,Li: 0.5000; Al: 0.5000
mp-13503,ScZn2,"Sc, Zn",2,0.0,Hexagonal,194,P6_3/mmc,0.0,False,True,0.1367,Sc: 0.3333; Zn: 0.6667
mp-30428,BaCu,"Ba, Cu",2,0.0,Hexagonal,194,P6_3/mmc,0.0,False,True,0.5050,Ba: 0.5000; Cu: 0.5000
mp-570963,TaCr2,"Cr, Ta",2,0.07452002505555555,Hexagonal,194,P6_3/mmc,0.0,False,True,0.0754,Ta: 0.3333; Cr: 0.6667
mp-1677,Be2Mo,"Be, Mo",2,0.0,Hexagonal,194,P6_3/mmc,0.0,False,True,0.2781,Be: 0.6667; Mo: 0.3333
mp-1191009,NbCo2,"Co, Nb",2,0.015001669222222347,Hexagonal,194,P6_3/mmc,0.0,False,True,0.1320,Nb: 0.3333; Co: 0.6667
mp-956096,HfFe2,"Fe, Hf",2,0.013042935833334823,Hexagonal,194,P6_3/mmc,0.0,False,True,0.2498,Hf: 0.3333; Fe: 0.6667
mp-30401,KAu2,"Au, K",2,0.0,Hexagonal,194,P6_3/mmc,0.0,False,True,0.8108,K: 0.3333; Au: 0.6667
mp-568077,TaFe2,"Fe, Ta",2,0.0,Hexagonal,194,P6_3/mmc,0.0,False,True,0.1556,Ta: 0.3333; Fe: 0.6667
mp-10598,CuSn,"Cu, Sn",2,0.009223705000000137,Hexagonal,194,P6_3/mmc,0.0,False,True,0.0300,Cu: 0.5000; Sn: 0.5000
mp-1103264,ZrV2,"V, Zr",2,0.03256666083333215,Hexagonal,194,P6_3/mmc,0.0,False,True,0.1414,Zr: 0.3333; V: 0.6667
mp-1079072,Mg3In,"In, Mg",2,0.001179484999999758,Hexagonal,194,P6_3/mmc,0.0,False,True,0.2035,Mg: 0.7500; In: 0.2500
mp-1201276,Y2Ni7,"Ni, Y",2,0.00852187916666658,Hexagonal,194,P6_3/mmc,0.0,False,True,0.2869,Y: 0.2222; Ni: 0.7778
mp-1095545,ZrTc2,"Tc, Zr",2,0.0,Hexagonal,194,P6_3/mmc,0.0,False,True,0.2687,Zr: 0.3333; Tc: 0.6667
mp-30842,ZrPd3,"Pd, Zr",2,0.0,Hexagonal,194,P6_3/mmc,0.0,False,True,0.3767,Zr: 0.2500; Pd: 0.7500
mp-999318,NiBi,"Bi, Ni",2,0.0,Hexagonal,194,P6_3/mmc,0.0,False,True,0.0550,Ni: 0.5000; Bi: 0.5000
mp-581920,La13Cd58,"Cd, La",2,0.0,Hexagonal,194,P6_3/mmc,0.0,False,True,0.2282,La: 0.1831; Cd: 0.8169
mp-1188129,ZrPt3,"Pt, Zr",2,0.0,Hexagonal,194,P6_3/mmc,0.0,False,True,0.4114,Zr: 0.2500; Pt: 0.7500
mp-30726,YHg3,"Hg, Y",2,0.0,Hexagonal,194,P6_3/mmc,0.0,False,True,0.3377,Y: 0.2500; Hg: 0.7500
mp-1191559,NbRh3,"Nb, Rh",2,0.0,Hexagonal,194,P6_3/mmc,0.0,False,True,0.2944,Nb: 0.2500; Rh: 0.7500
mp-1101860,ScTc2,"Sc, Tc",2,0.0,Hexagonal,194,P6_3/mmc,0.0,False,True,0.2546,Sc: 0.3333; Tc: 0.6667
mp-1409,TiNi3,"Ni, Ti",2,0.0,Hexagonal,194,P6_3/mmc,0.0,False,True,0.1602,Ti: 0.2500; Ni: 0.7500
mp-2039,ScMn2,"Mn, Sc",2,0.0,Hexagonal,194,P6_3/mmc,0.0,False,True,0.0896,Sc: 0.3333; Mn: 0.6667
mp-20868,Fe2W,"Fe, W",2,0.0,Hexagonal,194,P6_3/mmc,0.0,False,True,0.2498,Fe: 0.6667; W: 0.3333
mp-30651,MgGa2,"Ga, Mg",2,0.004995789999999722,Hexagonal,194,P6_3/mmc,0.0,False,True,0.2357,Mg: 0.3333; Ga: 0.6667
mp-570923,YRe2,"Re, Y",2,0.0,Hexagonal,194,P6_3/mmc,0.0,False,True,0.3206,Y: 0.3333; Re: 0.6667
mp-567857,Cd8Ag5,"Ag, Cd",2,0.0,Cubic,217,I-43m,0.0,False,True,0.1168,Cd: 0.6154; Ag: 0.3846
mp-1193259,Al8Fe5,"Al, Fe",2,0.046395610769231155,Cubic,217,I-43m,0.0,False,True,0.1070,Al: 0.6154; Fe: 0.3846
mp-30361,Zn8Ag5,"Ag, Zn",2,0.0025969757692312356,Cubic,217,I-43m,0.0,False,True,0.1362,Zn: 0.6154; Ag: 0.3846
mp-1193415,Cd8Au5,"Au, Cd",2,0.04904542677350321,Cubic,217,I-43m,0.0,False,True,0.4135,Cd: 0.6154; Au: 0.3846
mp-30747,Zn11Ir2,"Ir, Zn",2,0.0,Cubic,217,I-43m,0.0,False,True,0.1984,Zn: 0.8462; Ir: 0.1538
mp-1192984,Al5Re24,"Al, Re",2,0.06102760517241279,Cubic,217,I-43m,0.0,False,True,0.1095,Al: 0.1724; Re: 0.8276
mp-1988,Y5Mg24,"Mg, Y",2,0.017897527068963637,Cubic,217,I-43m,0.0,False,True,0.0340,Y: 0.1724; Mg: 0.8276
mp-1368,Zn8Cu5,"Cu, Zn",2,0.0,Cubic,217,I-43m,0.0,False,True,0.1216,Zn: 0.6154; Cu: 0.3846
mp-12662,Re24Mo5,"Mo, Re",2,0.0,Cubic,217,I-43m,0.0,False,True,0.0982,Re: 0.8276; Mo: 0.1724
mp-1192361,Zn11Co2,"Co, Zn",2,0.0,Cubic,217,I-43m,0.0,False,True,0.0830,Zn: 0.8462; Co: 0.1538
mp-11532,Zn11Ni2,"Ni, Zn",2,0.0,Cubic,217,I-43m,0.0,False,True,0.0938,Zn: 0.8462; Ni: 0.1538
mp-11558,Sc5Re24,"Re, Sc",2,0.0,Cubic,217,I-43m,0.0,False,True,0.2040,Sc: 0.1724; Re: 0.8276
mp-13448,Zn11Rh2,"Rh, Zn",2,0.0,Cubic,217,I-43m,0.0,False,True,0.2273,Zn: 0.8462; Rh: 0.1538
mp-21613,K5Pb24,"K, Pb",2,0.0,Cubic,217,I-43m,0.0,False,True,0.5704,K: 0.1724; Pb: 0.8276
mp-567490,Hf5Re24,"Hf, Re",2,0.0,Cubic,217,I-43m,0.0,False,True,0.2266,Hf: 0.1724; Re: 0.8276
mp-1193426,Fe25Mo4,"Fe, Mo",2,0.09549232379310268,Cubic,217,I-43m,0.0,False,True,0.1138,Fe: 0.8621; Mo: 0.1379
mp-1194114,Mg13Al16,"Al, Mg",2,0.044191618620689876,Cubic,217,I-43m,0.0,False,True,0.1492,Mg: 0.4483; Al: 0.5517
mp-2151,Mg17Al12,"Al, Mg",2,0.0,Cubic,217,I-43m,0.0,False,True,0.1478,Mg: 0.5862; Al: 0.4138
mp-1374,Zr5Re24,"Re, Zr",2,0.0,Cubic,217,I-43m,0.0,False,True,0.2153,Zr: 0.1724; Re: 0.8276
mp-1194089,CaMn28,"Ca, Mn",2,0.07027932406658621,Cubic,217,I-43m,0.0,False,True,0.1004,Ca: 0.0345; Mn: 0.9655
mp-518,Ti5Re24,"Re, Ti",2,0.0,Cubic,217,I-43m,0.0,False,True,0.1360,Ti: 0.1724; Re: 0.8276
mp-1198729,Li22Sn5,"Li, Sn",2,0.010069883333333252,Cubic,216,F-43m,0.0,False,True,0.3807,Li: 0.8148; Sn: 0.1852
mp-568623,Sc44Os7,"Os, Sc",2,0.0,Cubic,216,F-43m,0.0,False,True,0.2891,Sc: 0.8627; Os: 0.1373
mp-650,Be5Pd,"Be, Pd",2,0.0,Cubic,216,F-43m,0.0,False,True,0.2348,Be: 0.8333; Pd: 0.1667
mp-1200338,Y15Ni32,"Ni, Y",2,0.0,Cubic,216,F-43m,0.0,False,True,0.3216,Y: 0.3191; Ni: 0.6809
mp-1071690,Be5Co,"Be, Co",2,0.002452683333333816,Cubic,216,F-43m,0.0,False,True,0.1155,Be: 0.8333; Co: 0.1667
mp-573471,Li17Sn4,"Li, Sn",2,0.0,Cubic,216,F-43m,0.0,False,True,0.3848,Li: 0.8095; Sn: 0.1905
mp-1200708,Sc44Ir7,"Ir, Sc",2,0.0,Cubic,216,F-43m,0.0,False,True,0.2891,Sc: 0.8627; Ir: 0.1373
mp-1204948,La11Hg45,"Hg, La",2,0.0025207833928604373,Cubic,216,F-43m,0.0,False,True,0.3576,La: 0.1964; Hg: 0.8036
mp-2439,ZrNi5,"Ni, Zr",2,0.0005126866666671503,Cubic,216,F-43m,0.0,False,True,0.2162,Zr: 0.1667; Ni: 0.8333
mp-573651,Li22Pb5,"Li, Pb",2,0.008461113333332992,Cubic,216,F-43m,0.0,False,True,0.5244,Li: 0.8148; Pb: 0.1852
mp-570153,Mg44Rh7,"Mg, Rh",2,0.0,Cubic,216,F-43m,0.0,False,True,0.3338,Mg: 0.8627; Rh: 0.1373
mp-1220,Be5Au,"Au, Be",2,0.0,Cubic,216,F-43m,0.0,False,True,0.3615,Be: 0.8333; Au: 0.1667
mp-30603,ZrCu5,"Cu, Zr",2,0.009781456785713516,Cubic,216,F-43m,0.0,False,True,0.2124,Zr: 0.1667; Cu: 0.8333
mp-574275,Li17Pb4,"Li, Pb",2,0.0,Cubic,216,F-43m,0.0,False,True,0.5301,Li: 0.8095; Pb: 0.1905
mp-568920,CaAu5,"Au, Ca",2,0.0,Cubic,216,F-43m,0.0,False,True,0.5739,Ca: 0.1667; Au: 0.8333