material_id,formula,elements,num_elements,energy_above_hull,crystal_system,spacegroup_number,spacegroup_symbol,band_gap,theoretical,is_metal,electronegativity_difference
mp-973748,LiIn3,"In, Li",2,0.014984695000002546,Tetragonal,139,I4/mmm,0.0,True,True,0.34641016151377546
mp-1185103,La3Tl,"La, Tl",2,0.01963512000000378,Tetragonal,139,I4/mmm,0.0,True,True,0.22516660498395405
mp-1183432,BeNi3,"Be, Ni",2,0.07519452749999989,Tetragonal,139,I4/mmm,0.0,True,True,0.1472243186433545
mp-12666,Be12Pd,"Be, Pd",2,0.07945158115384565,Tetragonal,139,I4/mmm,0.0,False,True,0.16787569365667585
mp-1209233,Sc11Ga10,"Ga, Sc",2,0.025685272380950863,Tetragonal,139,I4/mmm,0.0,True,True,0.22474475317931816
mp-1187110,Sr3Ca,"Ca, Sr",2,0.04450788999999844,Tetragonal,139,I4/mmm,0.0,True,True,0.021650635094610987
mp-1094735,Ca3Mg,"Ca, Mg",2,0.040223500624999575,Tetragonal,139,I4/mmm,0.0,True,True,0.13423393758658803
mp-1186050,Na3Hg,"Hg, Na",2,0.021215371458335852,Tetragonal,139,I4/mmm,0.0,True,True,0.46332359102467463
mp-11464,MgHg2,"Hg, Mg",2,0.022827782499999727,Tetragonal,139,I4/mmm,0.0,False,True,0.3252691193458118
mp-1185096,La3Sc,"La, Sc",2,0.053741512500000255,Tetragonal,139,I4/mmm,0.0,True,True,0.11258330249197702
mp-1008601,ZrAg2,"Ag, Zr",2,0.040338308333328854,Tetragonal,139,I4/mmm,0.001300000000000523,False,False,0.28284271247461895
mp-569535,Ca2Bi,"Bi, Ca",2,0.0,Tetragonal,139,I4/mmm,0.0,False,True,0.4808326112068523
mp-862798,Pt3W,"Pt, W",2,0.01169780500000428,Tetragonal,139,I4/mmm,0.0,True,True,0.03464101615137758
mp-1184034,GaNi3,"Ga, Ni",2,0.03354063000000096,Tetragonal,139,I4/mmm,0.0,True,True,0.04330127018922188
mp-1007664,InPd3,"In, Pd",2,0.005576428750000417,Tetragonal,139,I4/mmm,0.0,False,True,0.1818653347947322
mp-266,Zr2Pd,"Pd, Zr",2,0.0,Tetragonal,139,I4/mmm,0.0,False,True,0.4101219330881976
mp-1018153,HfAu2,"Au, Hf",2,0.0,Tetragonal,139,I4/mmm,0.0,False,True,0.5845416057808793
mp-1185204,Li3Ni,"Li, Ni",2,0.0932833249999998,Tetragonal,139,I4/mmm,0.0,True,True,0.4027018127597639
mp-1186450,PdPt3,"Pd, Pt",2,0.0,Tetragonal,139,I4/mmm,0.0,True,True,0.034641016151377386
mp-2705,VPt3,"Pt, V",2,0.011099447500001247,Tetragonal,139,I4/mmm,0.0,False,True,0.2814582562299425
mp-1095016,CaMg2,"Ca, Mg",2,0.07243268833333305,Tetragonal,139,I4/mmm,0.0,True,True,0.14613540144521983
mp-30852,TiPt8,"Pt, Ti",2,0.0,Tetragonal,139,I4/mmm,0.0,False,True,0.2325595635902422
mp-13155,Hf2Ag,"Ag, Hf",2,0.0,Tetragonal,139,I4/mmm,0.0,False,True,0.2969848480983499
mp-1094567,LiMg3,"Li, Mg",2,0.02831194833333317,Tetragonal,139,I4/mmm,0.0,True,True,0.1428941916244324
mp-12761,BeAu2,"Au, Be",2,0.0,Tetragonal,139,I4/mmm,0.0,False,True,0.4572623851673007
mp-11567,ScZn12,"Sc, Zn",2,0.0,Tetragonal,139,I4/mmm,0.0,False,True,0.07727611295307293
mp-873,VPd3,"Pd, V",2,0.008876747500000448,Tetragonal,139,I4/mmm,0.0,False,True,0.24681724007856512
mp-1590,Be12Cr,"Be, Cr",2,0.0002578444230767474,Tetragonal,139,I4/mmm,0.0,False,True,0.02398224195095365
mp-11454,Hf2Pd,"Hf, Pd",2,0.0,Tetragonal,139,I4/mmm,0.0,False,True,0.42426406871192857
mp-2554,Al3V,"Al, V",2,0.0,Tetragonal,139,I4/mmm,0.0,False,True,0.008660254037844298
mp-1094476,MgZn3,"Mg, Zn",2,0.07171987047618922,Tetragonal,139,I4/mmm,0.0,True,True,0.1472243186433545
mp-571505,Rb2In3,"In, Rb",2,0.0056279337619051795,Tetragonal,139,I4/mmm,0.0,False,True,0.47030203061437026
mp-1186189,NaTl3,"Na, Tl",2,0.0,Tetragonal,139,I4/mmm,0.0,True,True,0.29877876430563133
mp-1094174,LaMg3,"La, Mg",2,0.001074660000000005,Tetragonal,139,I4/mmm,0.0,True,True,0.09093266739736605
mp-1018149,ScCu2,"Cu, Sc",2,0.0,Tetragonal,139,I4/mmm,0.0,False,True,0.25455844122715704
mp-975882,Li3Cu,"Cu, Li",2,0.059976963055556,Tetragonal,139,I4/mmm,0.0,True,True,0.3983716857408417
mp-1183214,Ag3Au,"Ag, Au",2,0.0004100274999991882,Tetragonal,139,I4/mmm,0.0,True,True,0.26413774815425384
mp-1222037,MgIn2,"In, Mg",2,0.003852182962963635,Tetragonal,139,I4/mmm,0.0,True,True,0.22156012477178486
mp-10909,AlRe2,"Al, Re",2,0.0,Tetragonal,139,I4/mmm,0.0,False,True,0.1367073110293991
mp-976322,Li3Pt,"Li, Pt",2,0.004036912500000156,Tetragonal,139,I4/mmm,0.0,True,True,0.562916512459885
mp-1185856,MgCu3,"Cu, Mg",2,0.06979783749999946,Tetragonal,139,I4/mmm,0.0,True,True,0.25547749411640935
mp-1973,NbGa3,"Ga, Nb",2,0.0,Tetragonal,139,I4/mmm,0.0,False,True,0.09093266739736605
mp-1018123,TiAu2,"Au, Ti",2,0.0,Tetragonal,139,I4/mmm,0.0,False,True,0.4714045207910317
mp-1183423,Be3Co,"Be, Co",2,0.0,Tetragonal,139,I4/mmm,0.0,True,True,0.13423393758658791
mp-2123,Nb3Au2,"Au, Nb",2,0.0,Tetragonal,139,I4/mmm,0.0,False,True,0.4605040716432375
mp-1094676,Mg3Bi,"Bi, Mg",2,0.06633827062499797,Tetragonal,139,I4/mmm,0.0,True,True,0.3074390183434757
mp-972326,TcPt3,"Pt, Tc",2,0.0,Tetragonal,139,I4/mmm,0.0,True,True,0.1645448267190433
mp-1038916,MgAl3,"Al, Mg",2,0.025026051249999792,Tetragonal,139,I4/mmm,0.0,True,True,0.1299038105676658
mp-975906,LiAl3,"Al, Li",2,0.026654015000000975,Tetragonal,139,I4/mmm,0.0,True,True,0.2727980021920982
mp-30581,Hf2Cu,"Cu, Hf",2,0.0,Tetragonal,139,I4/mmm,0.0,False,True,0.28284271247461895
mp-1018121,TiPd2,"Pd, Ti",2,0.0012809466666681146,Tetragonal,139,I4/mmm,0.0,False,True,0.311126983722081
mp-1183641,Cd3Pt,"Cd, Pt",2,0.0,Tetragonal,139,I4/mmm,0.0,True,True,0.25547749411640935
mp-1185066,La3Hg,"Hg, La",2,0.05011687749999538,Tetragonal,139,I4/mmm,0.0,True,True,0.3897114317029974
mp-1187169,SrCa3,"Ca, Sr",2,0.030013997499997558,Tetragonal,139,I4/mmm,0.0,True,True,0.021650635094610987
mp-1475,Be12Mo,"Be, Mo",2,0.0,Tetragonal,139,I4/mmm,0.0,False,True,0.15721691945625196
mp-865357,Zn3Pd,"Pd, Zn",2,0.0,Tetragonal,139,I4/mmm,0.0,True,True,0.23815698604072075
mp-1018166,AlTc2,"Al, Tc",2,0.0,Tetragonal,139,I4/mmm,0.0,False,True,0.1367073110293991
mp-869,TaAl3,"Al, Ta",2,0.0,Tetragonal,139,I4/mmm,0.0,False,True,0.04763139720814417
mp-978969,TlAu3,"Au, Tl",2,0.09483903499999968,Tetragonal,139,I4/mmm,0.0,True,True,0.3983716857408417
mp-1183224,AgAu3,"Ag, Au",2,0.0017489875000009647,Tetragonal,139,I4/mmm,0.0,True,True,0.26413774815425384
mp-976414,Li3Zn,"Li, Zn",2,0.025022655416666595,Tetragonal,139,I4/mmm,0.0,True,True,0.2901185102677869
mp-1014231,Hf2Zn,"Hf, Zn",2,0.0,Tetragonal,139,I4/mmm,0.0,False,True,0.16499158227686103
mp-1185042,KHg3,"Hg, K",2,0.03003326416666141,Tetragonal,139,I4/mmm,0.0,True,True,0.5109549882328188
mp-1186109,NaAu3,"Au, Na",2,0.09173926625000206,Tetragonal,139,I4/mmm,0.0,True,True,0.697150450046473
mp-571438,Be12V,"Be, V",2,0.0,Tetragonal,139,I4/mmm,0.0,False,True,0.015988161300635746
mp-1186442,Pd3Rh,"Pd, Rh",2,0.05344215999999946,Tetragonal,139,I4/mmm,0.0,True,True,0.034641016151377386
mp-976824,MgPb3,"Mg, Pb",2,0.03443889999999916,Tetragonal,139,I4/mmm,0.0,True,True,0.4416729559300637
mp-1104815,LaMg12,"La, Mg",2,0.013516861923076995,Tetragonal,139,I4/mmm,0.0,True,True,0.055958564552225254
mp-1185211,LaY3,"La, Y",2,0.083696986249997,Tetragonal,139,I4/mmm,0.0,True,True,0.05196152422706627
mp-865939,LiMg2,"Li, Mg",2,0.0,Tetragonal,139,I4/mmm,0.0,True,True,0.1555634918610405
mp-972285,Sr3Li,"Li, Sr",2,0.09762760213068167,Tetragonal,139,I4/mmm,0.0,True,True,0.012990381056766592
mp-1185120,K3Tl,"K, Tl",2,0.08749600322321438,Tetragonal,139,I4/mmm,0.0,True,True,0.3464101615137755
mp-1184794,IrRh3,"Ir, Rh",2,0.0,Tetragonal,139,I4/mmm,0.0,True,True,0.034641016151377386
mp-1186067,Na3Pd,"Na, Pd",2,0.005685117500000558,Tetragonal,139,I4/mmm,0.0,True,True,0.5499261314031186
mp-1039347,SnBi3,"Bi, Sn",2,0.09642573625000006,Tetragonal,139,I4/mmm,0.0,True,True,0.025980762113533184
mp-1184632,Hf3Hg,"Hf, Hg",2,0.0765464300000076,Tetragonal,139,I4/mmm,0.0,True,True,0.3031088913245535
mp-21477,RbIn4,"In, Rb",2,0.0,Tetragonal,139,I4/mmm,0.0,False,True,0.38400000000000006
mp-973308,MgIn3,"In, Mg",2,0.014425605555556942,Tetragonal,139,I4/mmm,0.0,True,True,0.20351596988934306
mp-1186127,NaCd3,"Cd, Na",2,0.0,Tetragonal,139,I4/mmm,0.0,True,True,0.32908965343808666
mp-1018128,ScAg2,"Ag, Sc",2,0.0,Tetragonal,139,I4/mmm,0.0,False,True,0.268700576850888
mp-1014229,Ti2Zn,"Ti, Zn",2,0.0,Tetragonal,139,I4/mmm,0.0,False,True,0.05185449728701342
mp-1185461,LiSn3,"Li, Sn",2,0.03375891249999974,Tetragonal,139,I4/mmm,0.0,True,True,0.4243524478543749
mp-12742,MgPd3,"Mg, Pd",2,0.0,Tetragonal,139,I4/mmm,0.0,False,True,0.3853813046840752
mp-30836,TaPd3,"Pd, Ta",2,0.0,Tetragonal,139,I4/mmm,0.0,False,True,0.3031088913245536
mp-395,ZrAl3,"Al, Zr",2,0.0,Tetragonal,139,I4/mmm,0.0,False,True,0.12124355652982143
mp-1183660,CdPb3,"Cd, Pb",2,0.05647821000000164,Tetragonal,139,I4/mmm,0.0,True,True,0.2771281292110204
mp-1183411,Be3Rh,"Be, Rh",2,0.012471473750000683,Tetragonal,139,I4/mmm,0.0,True,True,0.3074390183434756
mp-568069,Ti2Bi,"Bi, Ti",2,0.0,Tetragonal,139,I4/mmm,0.0,False,True,0.2262741699796952
mp-13164,Ti2Pd,"Pd, Ti",2,0.0,Tetragonal,139,I4/mmm,0.0,False,True,0.311126983722081
mp-976272,LiCa3,"Ca, Li",2,0.07740214875000007,Tetragonal,139,I4/mmm,0.0,True,True,0.008660254037844395
mp-1183635,Cd3Pd,"Cd, Pd",2,0.040184492567565844,Tetragonal,139,I4/mmm,0.0,True,True,0.22083647796503195
mp-862714,Be3Ir,"Be, Ir",2,0.0,Tetragonal,139,I4/mmm,0.0,True,True,0.2727980021920982
mp-1827,SrGa4,"Ga, Sr",2,0.0,Tetragonal,139,I4/mmm,0.0,False,True,0.3440000000000001
mp-862658,LiCu3,"Cu, Li",2,0.0,Tetragonal,139,I4/mmm,0.0,True,True,0.3983716857408417
mp-568827,Be12W,"Be, W",2,0.0,Tetragonal,139,I4/mmm,0.0,False,True,0.2105107904583712
mp-985296,Ag3Pd,"Ag, Pd",2,0.0,Tetragonal,139,I4/mmm,0.0,True,True,0.11691342951089932
mp-1184679,HgBi3,"Bi, Hg",2,0.07021915687499813,Tetragonal,139,I4/mmm,0.0,True,True,0.008660254037844395
mp-570491,TaNi3,"Ni, Ta",2,0.0002612381250024498,Tetragonal,139,I4/mmm,0.0,False,True,0.1775352077758099
mp-1184658,HgPd3,"Hg, Pd",2,0.0,Tetragonal,139,I4/mmm,0.0,True,True,0.08660254037844395
mp-976818,Ni3Au,"Au, Ni",2,0.09746691250000339,Tetragonal,139,I4/mmm,0.0,True,True,0.2727980021920982
mp-11299,Cd2Hg,"Cd, Hg",2,0.004843204166668613,Tetragonal,139,I4/mmm,0.0,False,True,0.14613540144521986
mp-1185990,MgTl3,"Mg, Tl",2,0.04281509833332642,Tetragonal,139,I4/mmm,0.0,True,True,0.13423393758658803
mp-22466,SrIn4,"In, Sr",2,0.01011527822222158,Tetragonal,139,I4/mmm,0.0,False,True,0.3320000000000001
mp-1157,TaNi2,"Ni, Ta",2,0.003738403500005205,Tetragonal,139,I4/mmm,0.0,False,True,0.19327585352432297
mp-30886,YZn12,"Y, Zn",2,0.0,Tetragonal,139,I4/mmm,0.0,False,True,0.11458182265455648
mp-977403,Na3Tl,"Na, Tl",2,0.009273631562500384,Tetragonal,139,I4/mmm,0.0,True,True,0.29877876430563133
mp-971804,ZnNi3,"Ni, Zn",2,0.011426597499999858,Tetragonal,139,I4/mmm,0.0,True,True,0.11258330249197704
mp-1018113,YAu2,"Au, Y",2,0.0,Tetragonal,139,I4/mmm,0.0,False,True,0.6222539674441618
mp-999204,ScAl3,"Al, Sc",2,0.0931855800000001,Tetragonal,139,I4/mmm,0.0,True,True,0.10825317547305482
mp-976075,Li3Ca,"Ca, Li",2,0.06004755895833336,Tetragonal,139,I4/mmm,0.0,True,True,0.008660254037844395
mp-1185332,LiGa3,"Ga, Li",2,0.09582855275000135,Tetragonal,139,I4/mmm,0.0,True,True,0.35940054257054205
mp-1094159,Li3Mg,"Li, Mg",2,0.0037423229166666516,Tetragonal,139,I4/mmm,0.0,True,True,0.1428941916244324
mp-1094433,Mg3Zn,"Mg, Zn",2,0.06394395365000038,Tetragonal,139,I4/mmm,0.0,True,True,0.1472243186433545
mp-7188,Al2Os,"Al, Os",2,0.0,Tetragonal,139,I4/mmm,0.2898999999999994,False,False,0.2781286672667087
mp-1065309,ZrAl3,"Al, Zr",2,0.033282970000000134,Tetragonal,139,I4/mmm,0.0,True,True,0.12124355652982143
mp-2731,TiGa3,"Ga, Ti",2,0.0,Tetragonal,139,I4/mmm,0.0,False,True,0.11691342951089922
mp-1217168,Ti4Pd,"Pd, Ti",2,0.0529252453333342,Tetragonal,139,I4/mmm,0.0,True,True,0.26400000000000007
mp-864758,Na3In,"In, Na",2,0.040365352500000284,Tetragonal,139,I4/mmm,0.0,True,True,0.3680607966083864
mp-16521,Al3Os2,"Al, Os",2,0.007409683000005884,Tetragonal,139,I4/mmm,0.0,False,True,0.2890397896484151
mp-27298,Ca11Bi10,"Bi, Ca",2,0.0,Tetragonal,139,I4/mmm,0.0,False,True,0.5094214405397879
mp-1185792,Mg3Tl,"Mg, Tl",2,0.02351560125000063,Tetragonal,139,I4/mmm,0.0,True,True,0.13423393758658803
mp-981232,Ti3Nb,"Nb, Ti",2,0.08193619749999925,Tetragonal,139,I4/mmm,0.0,True,True,0.025980762113533184
mp-976419,Hf3Bi,"Bi, Hf",2,0.0746035554166653,Tetragonal,139,I4/mmm,0.0,True,True,0.31176914536239786
mp-1185275,LiPb3,"Li, Pb",2,0.0203805325000026,Tetragonal,139,I4/mmm,0.0,True,True,0.5845671475544961
mp-1007855,FeNi3,"Fe, Ni",2,0.01703252250000009,Tetragonal,139,I4/mmm,0.0,True,True,0.034641016151377484
mp-1187475,Ti3Be,"Be, Ti",2,0.07207742979166643,Tetragonal,139,I4/mmm,0.0,True,True,0.012990381056766592
mp-975868,Li3Al,"Al, Li",2,0.05941175812499999,Tetragonal,139,I4/mmm,0.0,True,True,0.2727980021920982
mp-1185337,LiHg3,"Hg, Li",2,0.012928956250000567,Tetragonal,139,I4/mmm,0.0,True,True,0.4416729559300637
mp-30703,Hf11Ga10,"Ga, Hf",2,0.0,Tetragonal,139,I4/mmm,0.0,False,True,0.25471072026989394
mp-1183643,CdAu3,"Au, Cd",2,0.0039115712499935285,Tetragonal,139,I4/mmm,0.0,True,True,0.3680607966083865
mp-864742,Na3Sn,"Na, Sn",2,0.03806853762499962,Tetragonal,139,I4/mmm,0.0,True,True,0.4460030829489859
mp-1018148,ScAu2,"Au, Sc",2,0.0,Tetragonal,139,I4/mmm,0.0,False,True,0.5562573345334173
mp-542293,Ba11Bi10,"Ba, Bi",2,0.0,Tetragonal,139,I4/mmm,0.0,False,True,0.5643590468725102
mp-1183646,Cd3Ga,"Cd, Ga",2,0.08189029749999932,Tetragonal,139,I4/mmm,0.0,True,True,0.05196152422706637
mp-1094255,Zr3Sn,"Sn, Zr",2,0.047593937500000294,Tetragonal,139,I4/mmm,0.0,True,True,0.27279800219209815
mp-1210627,Mn3Ga,"Ga, Mn",2,0.0505323135344824,Tetragonal,139,I4/mmm,0.0,True,True,0.11258330249197704
mp-568052,K2Ga3,"Ga, K",2,0.0001027765499999056,Tetragonal,139,I4/mmm,0.2106999999999999,False,False,0.4849989690710693
mp-865562,Be3Ru,"Be, Ru",2,0.0,Tetragonal,139,I4/mmm,0.0,True,True,0.2727980021920982
mp-1094293,Sr3Mg,"Mg, Sr",2,0.09364328874999983,Tetragonal,139,I4/mmm,0.0,True,True,0.15588457268119899
mp-1185085,La3Zn,"La, Zn",2,0.09691990500000003,Tetragonal,139,I4/mmm,0.0,True,True,0.23815698604072055
mp-973508,KRb3,"K, Rb",2,0.02829872256250021,Tetragonal,139,I4/mmm,0.0,True,True,0.0
mp-1080001,ZrGa3,"Ga, Zr",2,0.0,Tetragonal,139,I4/mmm,0.0,False,True,0.20784609690826528
mp-1185836,MgAg3,"Ag, Mg",2,0.004001524999999617,Tetragonal,139,I4/mmm,0.0,True,True,0.26846787517317594
mp-8093,Ba2Cd,"Ba, Cd",2,0.0,Tetragonal,139,I4/mmm,0.0,False,True,0.3771236166328253
mp-1187946,ZnAg3,"Ag, Zn",2,0.006636417499997549,Tetragonal,139,I4/mmm,0.0,True,True,0.12124355652982143
mp-1184119,CuPd3,"Cu, Pd",2,0.010750867499996986,Tetragonal,139,I4/mmm,0.0,True,True,0.1299038105676659
mp-22481,KIn4,"In, K",2,0.0,Tetragonal,139,I4/mmm,0.0,False,True,0.38400000000000006
mp-1186151,NaLi3,"Li, Na",2,0.04319468749999977,Tetragonal,139,I4/mmm,0.0,True,True,0.02165063509461094
mp-865425,ZnPd3,"Pd, Zn",2,0.011163510625002537,Tetragonal,139,I4/mmm,0.0,True,True,0.23815698604072075
mp-865342,Zn3Rh,"Rh, Zn",2,0.0,Tetragonal,139,I4/mmm,0.0,True,True,0.27279800219209815
mp-976047,Li3Hg,"Hg, Li",2,0.0,Tetragonal,139,I4/mmm,0.0,True,True,0.4416729559300637
mp-1184493,In3Ag,"Ag, In",2,0.07299104673611012,Tetragonal,139,I4/mmm,0.0,True,True,0.06495190528383286
mp-1077063,La2Bi,"Bi, La",2,0.0,Tetragonal,139,I4/mmm,0.0,False,True,0.4336921591277491
mp-1749,CaAl4,"Al, Ca",2,0.0,Tetragonal,139,I4/mmm,0.0,False,True,0.24400000000000005
mp-1104222,YFe12,"Fe, Y",2,0.02026528769230751,Tetragonal,139,I4/mmm,0.0,True,True,0.1625463065564639
mp-971941,Zn3Ni,"Ni, Zn",2,0.028257140067568187,Tetragonal,139,I4/mmm,0.0,True,True,0.11258330249197702
mp-567842,TaBe12,"Be, Ta",2,0.0,Tetragonal,139,I4/mmm,0.0,False,True,0.018652854850741772
mp-1184904,In3Ga,"Ga, In",2,0.06514370000000014,Tetragonal,139,I4/mmm,0.0,True,True,0.012990381056766592
mp-21109,LaAl4,"Al, La",2,0.006269143999999116,Tetragonal,139,I4/mmm,0.0,False,True,0.20400000000000001
mp-1039344,Sn3Bi,"Bi, Sn",2,0.09467945375000042,Tetragonal,139,I4/mmm,0.0,True,True,0.025980762113533184
mp-2221,Zr2Ag,"Ag, Zr",2,0.0,Tetragonal,139,I4/mmm,0.0,False,True,0.28284271247461895
mp-974358,Ir3Ru,"Ir, Ru",2,0.0,Tetragonal,139,I4/mmm,0.0,True,True,0.0
mp-1187555,Tl3Cd,"Cd, Tl",2,0.06732396249999795,Tetragonal,139,I4/mmm,0.0,True,True,0.030310889132455283
mp-1186972,Sc3Nb,"Nb, Sc",2,0.09973555375000132,Tetragonal,139,I4/mmm,0.0,True,True,0.10392304845413264
mp-971948,Zn3Co,"Co, Zn",2,0.01751606715909304,Tetragonal,139,I4/mmm,0.0,True,True,0.09959292143521044
mp-1183998,Ga3Tc,"Ga, Tc",2,0.0,Tetragonal,139,I4/mmm,0.0,True,True,0.03897114317029968
mp-867780,Al3Cr,"Al, Cr",2,0.0,Tetragonal,139,I4/mmm,0.0,True,True,0.02165063509461089
mp-975904,Li3Cd,"Cd, Li",2,0.0,Tetragonal,139,I4/mmm,0.0,True,True,0.3074390183434757
mp-1185119,K3Rb,"K, Rb",2,0.03787729768750081,Tetragonal,139,I4/mmm,0.0,True,True,0.0
mp-1187951,ZnCo3,"Co, Zn",2,0.07635885352272709,Tetragonal,139,I4/mmm,0.0,True,True,0.09959292143521044
mp-1018104,Zr2Cd,"Cd, Zr",2,0.0,Tetragonal,139,I4/mmm,0.0,False,True,0.16970562748477133
mp-1094320,SrMg3,"Mg, Sr",2,0.07225729624999988,Tetragonal,139,I4/mmm,0.0,True,True,0.15588457268119899
mp-1186350,NiIr3,"Ir, Ni",2,0.011985112499992567,Tetragonal,139,I4/mmm,0.0,True,True,0.1255736835487437
mp-30599,Ti2Cu3,"Cu, Ti",2,0.040680273499999586,Tetragonal,139,I4/mmm,0.0,False,True,0.17636326148038875
mp-1184704,HfCu3,"Cu, Hf",2,0.07249532007622062,Tetragonal,139,I4/mmm,0.0,True,True,0.25980762113533157
mp-1070103,Hf2Pt3,"Hf, Pt",2,0.008496287749991893,Tetragonal,139,I4/mmm,0.0,False,True,0.48009998958550276
mp-1184028,Cu3Rh,"Cu, Rh",2,0.03886744999999969,Tetragonal,139,I4/mmm,0.0,True,True,0.1645448267190433
mp-1184425,Ga3Pb,"Ga, Pb",2,0.09109193937500137,Tetragonal,139,I4/mmm,0.0,True,True,0.22516660498395405
mp-1185771,Mg2Pd,"Mg, Pd",2,0.00699139305555585,Tetragonal,139,I4/mmm,0.0,True,True,0.4195500235040182
mp-1070580,Al3Ru2,"Al, Ru",2,0.0,Tetragonal,139,I4/mmm,0.0,False,True,0.2890397896484151
mp-865985,CdPd3,"Cd, Pd",2,0.0,Tetragonal,139,I4/mmm,0.0,True,True,0.22083647796503195
mp-1184772,Hf3Pb,"Hf, Pb",2,0.0,Tetragonal,139,I4/mmm,0.0,True,True,0.44600308294898594
mp-865900,Ti3Tl,"Ti, Tl",2,0.0,Tetragonal,139,I4/mmm,0.0,True,True,0.03464101615137758
mp-1183256,AgPb3,"Ag, Pb",2,0.08509275833333874,Tetragonal,139,I4/mmm,0.0,True,True,0.17320508075688779
mp-1187844,Zr3Pb,"Pb, Zr",2,0.03697422375000414,Tetragonal,139,I4/mmm,0.0,True,True,0.4330127018922193
mp-976025,Li3Ga,"Ga, Li",2,0.03374456333333331,Tetragonal,139,I4/mmm,0.0,True,True,0.35940054257054205
mp-1078721,InPd3,"In, Pd",2,0.0,Tetragonal,139,I4/mmm,0.0,False,True,0.1818653347947322
mp-976106,Hf3Tl,"Hf, Tl",2,0.0,Tetragonal,139,I4/mmm,0.0,True,True,0.1385640646055102
mp-12693,Mg2Rh,"Mg, Rh",2,0.0,Tetragonal,139,I4/mmm,0.0,False,True,0.4572623851673006
mp-1018102,ZrPd2,"Pd, Zr",2,0.006719121666666439,Tetragonal,139,I4/mmm,0.0,False,True,0.4101219330881976
mp-1185848,MgAu3,"Au, Mg",2,0.011777831999997268,Tetragonal,139,I4/mmm,0.0,True,True,0.5326056233274298
mp-976971,NaPd3,"Na, Pd",2,0.00025291500000079736,Tetragonal,139,I4/mmm,0.0,True,True,0.5499261314031186
mp-1187819,YBi3,"Bi, Y",2,0.07156671249999924,Tetragonal,139,I4/mmm,0.0,True,True,0.34641016151377546
mp-865168,Be3Ni,"Be, Ni",2,0.0,Tetragonal,139,I4/mmm,0.0,True,True,0.1472243186433545
mp-22508,YMn12,"Mn, Y",2,0.07102309124668515,Tetragonal,139,I4/mmm,0.0,False,True,0.08793488715349687
mp-1094771,MgCd3,"Cd, Mg",2,0.03625157041666682,Tetragonal,139,I4/mmm,0.0,True,True,0.1645448267190433
mp-8094,Ba2Hg,"Ba, Hg",2,0.0,Tetragonal,139,I4/mmm,0.0,False,True,0.5232590180780452
mp-976281,Li3Pd,"Li, Pd",2,0.0029711416071425134,Tetragonal,139,I4/mmm,0.0,True,True,0.5282754963085077
mp-1078602,ZrIn3,"In, Zr",2,0.0032203587499992636,Tetragonal,139,I4/mmm,0.0,False,True,0.1948557158514987
mp-1183650,CdHg3,"Cd, Hg",2,0.03757884187500338,Tetragonal,139,I4/mmm,0.0,True,True,0.13423393758658803
mp-1186031,Na3Cd,"Cd, Na",2,0.0041281600000004914,Tetragonal,139,I4/mmm,0.0,True,True,0.32908965343808666
mp-862716,LiAg3,"Ag, Li",2,0.0,Tetragonal,139,I4/mmm,0.0,True,True,0.41136206679760834
mp-193,Zr2Cu,"Cu, Zr",2,0.0,Tetragonal,139,I4/mmm,0.0,False,True,0.268700576850888