material_id,formula,elements,num_elements,energy_above_hull,crystal_system,spacegroup_number,spacegroup_symbol,band_gap,theoretical,is_metal,electronegativity_difference,atomic_concentrations
mp-2833,IrS2,"Ir, S",2,0.0,Orthorhombic,62,Pnma,0.5371000000000006,False,False,0.1791,Ir: 0.3333; S: 0.6667
mp-17399,Ba5Sb4,"Ba, Sb",2,1.4264166663835454e-05,Orthorhombic,62,Pnma,0.4347000000000003,False,False,0.5764,Ba: 0.5556; Sb: 0.4444
mp-560553,IrF6,"F, Ir",2,0.0,Orthorhombic,62,Pnma,0.7714000000000003,False,False,0.6229,Ir: 0.1429; F: 0.8571
mp-1102093,EuI2,"Eu, I",2,0.0,Orthorhombic,62,Pnma,1.3259000000000003,False,False,0.6953,Eu: 0.3333; I: 0.6667
mp-29848,IF3,"F, I",2,0.08642193779999907,Orthorhombic,62,Pnma,2.1132,False,False,0.5716,I: 0.2500; F: 0.7500
mp-28029,TcP3,"P, Tc",2,0.0,Orthorhombic,62,Pnma,0.45060000000000144,False,False,0.1256,Tc: 0.2500; P: 0.7500
mp-2275,UF6,"F, U",2,0.0,Orthorhombic,62,Pnma,2.7943000000000002,False,False,0.9098,U: 0.1429; F: 0.8571
mp-1181747,CrO2,"Cr, O",2,0.05654767916663417,Orthorhombic,62,Pnma,0.9693,False,False,0.8391,Cr: 0.3333; O: 0.6667
mp-23713,CaH2,"Ca, H",2,0.0,Orthorhombic,62,Pnma,3.0275,False,False,0.5657,Ca: 0.3333; H: 0.6667
mp-1095223,OF2,"F, O",2,0.05304255000000069,Orthorhombic,62,Pnma,2.1241,False,False,0.2546,O: 0.3333; F: 0.6667
mp-1146,ThS2,"S, Th",2,0.0,Orthorhombic,62,Pnma,1.0335999999999999,False,False,0.6034,Th: 0.3333; S: 0.6667
mp-1079574,TePb,"Pb, Te",2,0.05548009875000304,Orthorhombic,62,Pnma,0.8023999999999996,False,False,0.1150,Te: 0.5000; Pb: 0.5000
mp-28127,Na2S5,"Na, S",2,0.0,Orthorhombic,62,Pnma,1.7772000000000001,False,False,0.7454,Na: 0.2857; S: 0.7143
mp-17566,Ba5P4,"Ba, P",2,3.472888887223746e-05,Orthorhombic,62,Pnma,0.9365000000000001,False,False,0.6460,Ba: 0.5556; P: 0.4444
mp-1508,LaS2,"La, S",2,0.0,Orthorhombic,62,Pnma,0.6312999999999995,False,False,0.6977,La: 0.3333; S: 0.6667
mp-1361,IrSe2,"Ir, Se",2,0.0,Orthorhombic,62,Pnma,0.0517000000000003,False,False,0.1650,Ir: 0.3333; Se: 0.6667
mp-669509,Gd2S3,"Gd, S",2,0.0,Orthorhombic,62,Pnma,0.5267,False,False,0.6761,Gd: 0.4000; S: 0.6000
mp-685022,TePb,"Pb, Te",2,0.05491841249999396,Orthorhombic,62,Pnma,0.7206000000000001,False,False,0.1150,Te: 0.5000; Pb: 0.5000
mp-27655,Te2I,"I, Te",2,0.0,Orthorhombic,62,Pnma,0.6558000000000002,False,False,0.2640,Te: 0.6667; I: 0.3333
mp-20589,MoO3,"Mo, O",2,0.027625615624998545,Orthorhombic,62,Pnma,1.9487,False,False,0.5543,Mo: 0.2500; O: 0.7500
mp-570005,SbBr3,"Br, Sb",2,0.0,Orthorhombic,62,Pnma,3.1173,False,False,0.3940,Sb: 0.2500; Br: 0.7500
mp-1194350,As4Se3,"As, Se",2,0.003208629107142258,Orthorhombic,62,Pnma,1.6237,False,False,0.1831,As: 0.5714; Se: 0.4286
mp-1201727,TiO2,"O, Ti",2,0.06658862770833451,Orthorhombic,62,Pnma,2.4439,False,False,0.8957,Ti: 0.3333; O: 0.6667
mp-1095292,GeF2,"F, Ge",2,0.014314682916666044,Orthorhombic,62,Pnma,4.1384,False,False,0.9287,Ge: 0.3333; F: 0.6667
mp-277,Zr3N4,"N, Zr",2,0.0,Orthorhombic,62,Pnma,0.9704999999999995,False,False,0.8462,Zr: 0.4286; N: 0.5714
mp-726705,SrO2,"O, Sr",2,0.009602360833332213,Orthorhombic,62,Pnma,2.7824999999999998,False,False,1.1738,Sr: 0.3333; O: 0.6667
mp-23164,Bi2Se3,"Bi, Se",2,0.014709641000001383,Orthorhombic,62,Pnma,0.9577999999999998,False,False,0.2596,Bi: 0.4000; Se: 0.6000
mp-1188175,Gd2Se3,"Gd, Se",2,0.0,Orthorhombic,62,Pnma,0.4490000000000003,False,False,0.6614,Gd: 0.4000; Se: 0.6000
mp-2231,SnS,"S, Sn",2,0.0,Orthorhombic,62,Pnma,0.9047999999999998,False,False,0.3100,Sn: 0.5000; S: 0.5000
mp-23260,BaI2,"Ba, I",2,0.0,Orthorhombic,62,Pnma,3.4525000000000006,False,False,0.8344,Ba: 0.3333; I: 0.6667
mp-2632,TlF3,"F, Tl",2,0.0,Orthorhombic,62,Pnma,1.2702,False,False,1.0219,Tl: 0.2500; F: 0.7500
mp-9323,Tb2S3,"S, Tb",2,0.0,Orthorhombic,62,Pnma,0.5792999999999999,False,False,0.6712,Tb: 0.4000; S: 0.6000
mp-23715,BaH2,"Ba, H",2,0.0,Orthorhombic,62,Pnma,2.8697,False,False,0.6175,Ba: 0.3333; H: 0.6667
mp-29862,SnBr2,"Br, Sn",2,0.0,Orthorhombic,62,Pnma,2.5387,False,False,0.4714,Sn: 0.3333; Br: 0.6667
mp-15179,Pr2S3,"Pr, S",2,0.0,Orthorhombic,62,Pnma,0.7775000000000003,False,False,0.7104,Pr: 0.4000; S: 0.6000
mp-23230,PCl3,"Cl, P",2,0.0,Orthorhombic,62,Pnma,4.051,False,False,0.4200,P: 0.2500; Cl: 0.7500
mp-505682,Dy2Te,"Dy, Te",2,0.0,Orthorhombic,62,Pnma,0.006800000000000139,False,False,0.4148,Dy: 0.6667; Te: 0.3333
mp-11347,TbF3,"F, Tb",2,0.0,Orthorhombic,62,Pnma,7.7552,False,False,1.1994,Tb: 0.2500; F: 0.7500
mp-570884,TeI4,"I, Te",2,0.0,Orthorhombic,62,Pnma,1.7639000000000002,False,False,0.2240,Te: 0.2000; I: 0.8000
mp-9371,ErF3,"Er, F",2,0.0,Orthorhombic,62,Pnma,7.6163,False,False,1.1865,Er: 0.2500; F: 0.7500
mp-2809,Sb2S3,"S, Sb",2,0.0,Orthorhombic,62,Pnma,1.2866,False,False,0.2596,Sb: 0.4000; S: 0.6000
mp-1468,P4S3,"P, S",2,0.0,Orthorhombic,62,Pnma,2.8693,False,False,0.1930,P: 0.5714; S: 0.4286
mp-9173,TiO2,"O, Ti",2,0.05749979000000138,Orthorhombic,62,Pnma,2.4757000000000007,False,False,0.8957,Ti: 0.3333; O: 0.6667
mp-540703,Cs2S,"Cs, S",2,0.0,Orthorhombic,62,Pnma,2.0952,False,False,0.8438,Cs: 0.6667; S: 0.3333
mp-1875,TeF6,"F, Te",2,0.0,Orthorhombic,62,Pnma,4.3975,False,False,0.6579,Te: 0.1429; F: 0.8571
mp-22856,Bi2S3,"Bi, S",2,0.0,Orthorhombic,62,Pnma,1.3617999999999997,False,False,0.2743,Bi: 0.4000; S: 0.6000
mp-20974,VO2,"O, V",2,0.09751762916665108,Orthorhombic,62,Pnma,0.3927999999999998,False,False,0.8532,V: 0.3333; O: 0.6667
mp-557321,As4S3,"As, S",2,0.006840436428570129,Orthorhombic,62,Pnma,2.471,False,False,0.1979,As: 0.5714; S: 0.4286
mp-1244,SrGe2,"Ge, Sr",2,0.014914792499997276,Orthorhombic,62,Pnma,0.3359000000000001,False,False,0.4997,Sr: 0.3333; Ge: 0.6667
mp-27641,CsBr3,"Br, Cs",2,0.0,Orthorhombic,62,Pnma,2.2214,False,False,0.9396,Cs: 0.2500; Br: 0.7500
mp-23714,SrH2,"H, Sr",2,0.0,Orthorhombic,62,Pnma,3.1544,False,False,0.5893,Sr: 0.3333; H: 0.6667
mp-28328,RbI3,"I, Rb",2,0.0,Orthorhombic,62,Pnma,1.8744999999999998,False,False,0.7967,Rb: 0.2500; I: 0.7500
mp-573763,Cs2Te,"Cs, Te",2,0.0,Orthorhombic,62,Pnma,1.7740000000000002,False,False,0.6175,Cs: 0.6667; Te: 0.3333
mp-1102384,Rb2S,"Rb, S",2,0.013809254166666562,Orthorhombic,62,Pnma,1.9681,False,False,0.8297,Rb: 0.6667; S: 0.3333
mp-1270,Dy2S3,"Dy, S",2,0.0,Orthorhombic,62,Pnma,0.5937999999999999,False,False,0.6663,Dy: 0.4000; S: 0.6000
mp-1188532,Lu2S3,"Lu, S",2,0.04504654400000163,Orthorhombic,62,Pnma,0.7199,False,False,0.6418,Lu: 0.4000; S: 0.6000
mp-2095,Rb2Te3,"Rb, Te",2,0.0,Orthorhombic,62,Pnma,0.6694999999999998,False,False,0.6271,Rb: 0.4000; Te: 0.6000
mp-17329,PrS2,"Pr, S",2,2.661374999846089e-05,Orthorhombic,62,Pnma,0.32289999999999974,False,False,0.6835,Pr: 0.3333; S: 0.6667
mp-28077,PbBr2,"Br, Pb",2,0.027179520833333193,Orthorhombic,62,Pnma,3.0272,False,False,0.2970,Pb: 0.3333; Br: 0.6667
mp-570679,TaI5,"I, Ta",2,0.0,Orthorhombic,62,Pnma,1.1727,False,False,0.4323,Ta: 0.1667; I: 0.8333
mp-10464,CaF2,"Ca, F",2,0.03464170166666669,Orthorhombic,62,Pnma,7.467700000000001,False,False,1.4048,Ca: 0.3333; F: 0.6667
mp-1224,HgO,"Hg, O",2,0.0,Orthorhombic,62,Pnma,1.1867,False,False,0.7200,Hg: 0.5000; O: 0.5000
mp-7951,ThSe2,"Se, Th",2,0.0,Orthorhombic,62,Pnma,0.6304999999999996,False,False,0.5893,Th: 0.3333; Se: 0.6667
mp-29109,SiI3,"I, Si",2,0.00028739562499779936,Orthorhombic,62,Pnma,2.8485,False,False,0.3291,Si: 0.2500; I: 0.7500
mp-556978,Na2S,"Na, S",2,0.034994842499999734,Orthorhombic,62,Pnma,2.1176000000000004,False,False,0.7778,Na: 0.6667; S: 0.3333
mp-31086,NaP5,"Na, P",2,0.009960415000000111,Orthorhombic,62,Pnma,1.3958000000000004,False,False,0.4696,Na: 0.1667; P: 0.8333
mp-2517,Ca2Si,"Ca, Si",2,0.0010894249999999772,Orthorhombic,62,Pnma,0.2915000000000001,False,False,0.4243,Ca: 0.6667; Si: 0.3333
mp-438,Nd2S3,"Nd, S",2,0.0,Orthorhombic,62,Pnma,0.7595999999999998,False,False,0.7055,Nd: 0.4000; S: 0.6000
mp-561877,HoF3,"F, Ho",2,0.0,Orthorhombic,62,Pnma,7.7482,False,False,1.1908,Ho: 0.2500; F: 0.7500
mp-2511,PbF2,"F, Pb",2,0.000928124166666322,Orthorhombic,62,Pnma,4.3804,False,False,0.7778,Pb: 0.3333; F: 0.6667
mp-1106376,Sm2Te3,"Sm, Te",2,0.0,Orthorhombic,62,Pnma,0.5334000000000003,False,False,0.4556,Sm: 0.4000; Te: 0.6000
mp-2160,Sb2Se3,"Sb, Se",2,0.0,Orthorhombic,62,Pnma,0.7564000000000002,False,False,0.2449,Sb: 0.4000; Se: 0.6000
mp-23712,MgH2,"H, Mg",2,0.08165124583333316,Orthorhombic,62,Pnma,1.9527999999999999,False,False,0.4196,Mg: 0.3333; H: 0.6667
mp-1078500,PbS,"Pb, S",2,0.03096095999999804,Orthorhombic,62,Pnma,1.2176999999999998,False,False,0.1250,Pb: 0.5000; S: 0.5000
mp-8850,Dy2S3,"Dy, S",2,0.0065266820000005055,Orthorhombic,62,Pnma,0.7389000000000001,False,False,0.6663,Dy: 0.4000; S: 0.6000
mp-7289,K2Te3,"K, Te",2,0.0,Orthorhombic,62,Pnma,0.5752000000000002,False,False,0.6271,K: 0.4000; Te: 0.6000
mp-7368,Dy2Se3,"Dy, Se",2,0.0,Orthorhombic,62,Pnma,0.3663000000000003,False,False,0.6516,Dy: 0.4000; Se: 0.6000
mp-2576,Sr2Ge,"Ge, Sr",2,0.0,Orthorhombic,62,Pnma,0.36339999999999995,False,False,0.4997,Sr: 0.6667; Ge: 0.3333
mp-667324,In2Cl3,"Cl, In",2,0.00333286658750076,Orthorhombic,62,Pnma,2.295,False,False,0.6761,In: 0.4000; Cl: 0.6000
mp-1469,P4S3,"P, S",2,0.0030912839285708316,Orthorhombic,62,Pnma,2.8816,False,False,0.1930,P: 0.5714; S: 0.4286
mp-22855,HgCl2,"Cl, Hg",2,0.0,Orthorhombic,62,Pnma,2.8686,False,False,0.5468,Hg: 0.3333; Cl: 0.6667
mp-23291,PbCl2,"Cl, Pb",2,0.0,Orthorhombic,62,Pnma,3.7939,False,False,0.3913,Pb: 0.3333; Cl: 0.6667
mp-555003,WF6,"F, W",2,0.0,Orthorhombic,62,Pnma,5.3735,False,False,0.5669,W: 0.1429; F: 0.8571
mp-17739,Sr5Sb3,"Sb, Sr",2,0.001357225937500317,Orthorhombic,62,Pnma,0.11430000000000007,False,False,0.5325,Sr: 0.6250; Sb: 0.3750
mp-1188645,Y2S3,"S, Y",2,0.008065812999999977,Orthorhombic,62,Pnma,0.6665000000000001,False,False,0.6663,Y: 0.4000; S: 0.6000
mp-15081,Sm2Se3,"Se, Sm",2,0.0,Orthorhombic,62,Pnma,0.3736999999999999,False,False,0.6761,Sm: 0.4000; Se: 0.6000
mp-22887,EuCl2,"Cl, Eu",2,0.0,Orthorhombic,62,Pnma,1.2143999999999995,False,False,0.9310,Eu: 0.3333; Cl: 0.6667
mp-1102919,HgCl2,"Cl, Hg",2,0.06572913333333474,Orthorhombic,62,Pnma,3.5288999999999997,False,False,0.5468,Hg: 0.3333; Cl: 0.6667
mp-1080459,GeTe,"Ge, Te",2,0.028000343750001377,Orthorhombic,62,Pnma,0.15500000000000025,False,False,0.0450,Ge: 0.5000; Te: 0.5000
mp-1191118,Cs2Sb,"Cs, Sb",2,0.0,Orthorhombic,62,Pnma,0.28390000000000004,False,False,0.5940,Cs: 0.6667; Sb: 0.3333
mp-568761,AgTe,"Ag, Te",2,0.0006414699999979234,Orthorhombic,62,Pnma,0.24110000000000031,False,False,0.0850,Ag: 0.5000; Te: 0.5000
mp-27648,Te2Br,"Br, Te",2,0.0,Orthorhombic,62,Pnma,0.6562999999999999,False,False,0.4054,Te: 0.6667; Br: 0.3333
mp-1106,Sr2Si,"Si, Sr",2,0.0,Orthorhombic,62,Pnma,0.3433999999999999,False,False,0.4478,Sr: 0.6667; Si: 0.3333
mp-22876,CsI3,"Cs, I",2,0.0,Orthorhombic,62,Pnma,1.9163999999999999,False,False,0.8097,Cs: 0.2500; I: 0.7500
mp-22908,BiCl3,"Bi, Cl",2,0.0,Orthorhombic,62,Pnma,3.3934,False,False,0.4936,Bi: 0.2500; Cl: 0.7500
mp-1196525,Sm5Rh4,"Rh, Sm",2,0.0,Orthorhombic,62,Pnma,0.001000000000000334,False,False,0.5516,Sm: 0.5556; Rh: 0.4444
mp-796340,MnO2,"Mn, O",2,0.03608267388888997,Tetragonal,84,P4_2/m,0.785,False,False,0.8910,Mn: 0.3333; O: 0.6667
mp-561384,ZrF4,"F, Zr",2,0.0005878947499997622,Tetragonal,84,P4_2/m,4.4174,False,False,1.0600,Zr: 0.2000; F: 0.8000
mp-1205321,PtS,"Pt, S",2,0.034906468749998254,Tetragonal,84,P4_2/m,0.18820000000000014,False,False,0.1500,Pt: 0.5000; S: 0.5000
mp-23228,PCl5,"Cl, P",2,0.003938044583334133,Tetragonal,85,P4/n,1.7945,False,False,0.3615,P: 0.1667; Cl: 0.8333
mp-32711,SrBr2,"Br, Sr",2,0.0,Tetragonal,85,P4/n,4.299799999999999,False,False,0.9475,Sr: 0.3333; Br: 0.6667
mp-23311,EuBr2,"Br, Eu",2,0.0,Tetragonal,85,P4/n,1.0457999999999998,False,False,0.8367,Eu: 0.3333; Br: 0.6667
mp-1190581,Re4Si7,"Re, Si",2,0.0,Monoclinic,8,Cm,0.05030000000000001,False,False,0.0000,Re: 0.3636; Si: 0.6364
mp-27821,Ag3P11,"Ag, P",2,0.0,Monoclinic,8,Cm,0.8305999999999996,False,False,0.1067,Ag: 0.2143; P: 0.7857
mp-568595,Re4Si7,"Re, Si",2,0.09071444863636202,Monoclinic,8,Cm,0.00730000000000075,False,False,0.0000,Re: 0.3636; Si: 0.6364
mp-557881,SiO2,"O, Si",2,0.020218251944445598,Monoclinic,8,Cm,5.6379,False,False,0.7260,Si: 0.3333; O: 0.6667
mp-10534,Sm10S19,"S, Sm",2,0.0,Tetragonal,86,P4_2/n,0.49650000000000016,False,False,0.6702,Sm: 0.3448; S: 0.6552
mp-560786,Nd10S19,"Nd, S",2,0.0,Tetragonal,86,P4_2/n,0.5009000000000006,False,False,0.6844,Nd: 0.3448; S: 0.6552
mp-558229,La10S19,"La, S",2,0.0,Tetragonal,86,P4_2/n,0.7225999999999999,False,False,0.7035,La: 0.3448; S: 0.6552
mp-8866,La10Se19,"La, Se",2,0.0,Tetragonal,86,P4_2/n,0.5750000000000002,False,False,0.6892,La: 0.3448; Se: 0.6552
mp-14650,Nd10Se19,"Nd, Se",2,0.0,Tetragonal,86,P4_2/n,0.29410000000000025,False,False,0.6702,Nd: 0.3448; Se: 0.6552
mp-29832,Sm10Se19,"Se, Sm",2,0.0,Tetragonal,86,P4_2/n,0.27010000000000023,False,False,0.6559,Sm: 0.3448; Se: 0.6552
mp-1204382,Tm10S19,"S, Tm",2,0.03499817715517395,Tetragonal,86,P4_2/n,0.5289000000000001,False,False,0.6322,Tm: 0.3448; S: 0.6552
mp-561375,Pr10S19,"Pr, S",2,0.0,Tetragonal,86,P4_2/n,0.5101000000000004,False,False,0.6892,Pr: 0.3448; S: 0.6552
mp-14613,Pr10Se19,"Pr, Se",2,0.0,Tetragonal,86,P4_2/n,0.3176999999999994,False,False,0.6749,Pr: 0.3448; Se: 0.6552
mp-19395,MnO2,"Mn, O",2,0.016697983888889212,Tetragonal,87,I4/m,1.1467,False,False,0.8910,Mn: 0.3333; O: 0.6667
mp-1852,UF5,"F, U",2,0.0,Tetragonal,87,I4/m,0.7455999999999999,False,False,0.9690,U: 0.1667; F: 0.8333
mp-644,K5Te3,"K, Te",2,0.0,Tetragonal,87,I4/m,0.17159999999999997,False,False,0.6197,K: 0.6250; Te: 0.3750
mp-2371,Ga2Te5,"Ga, Te",2,0.0,Tetragonal,87,I4/m,0.9609000000000001,False,False,0.1310,Ga: 0.2857; Te: 0.7143
mp-27743,BiF5,"Bi, F",2,0.0,Tetragonal,87,I4/m,1.8137999999999999,False,False,0.7304,Bi: 0.1667; F: 0.8333
mp-600054,SiO2,"O, Si",2,0.018295835989581732,Tetragonal,91,P4_122,5.6447,False,False,0.7260,Si: 0.3333; O: 0.6667
mp-27205,TlCl2,"Cl, Tl",2,0.0,Tetragonal,88,I4_1/a,2.2468,False,False,0.7260,Tl: 0.3333; Cl: 0.6667
mp-1288,AgO,"Ag, O",2,0.04718041062499978,Tetragonal,88,I4_1/a,0.1826000000000001,False,False,0.7550,Ag: 0.5000; O: 0.5000
mp-567431,ThCl4,"Cl, Th",2,0.0,Tetragonal,88,I4_1/a,3.6452,False,False,0.7440,Th: 0.2000; Cl: 0.8000
mp-821,NbO2,"Nb, O",2,0.002364360416665434,Tetragonal,88,I4_1/a,0.42600000000000016,False,False,0.8674,Nb: 0.3333; O: 0.6667
mp-570229,ThBr4,"Br, Th",2,0.0,Tetragonal,88,I4_1/a,2.8181,False,False,0.6640,Th: 0.2000; Br: 0.8000
mp-1199451,B2S3,"B, S",2,0.0,Tetragonal,88,I4_1/a,2.5061,False,False,0.2645,B: 0.4000; S: 0.6000
mp-541103,MnF4,"F, Mn",2,0.0,Tetragonal,88,I4_1/a,0.6701999999999999,False,False,0.9720,Mn: 0.2000; F: 0.8000
mp-582549,In2Te5,"In, Te",2,0.001190307142856284,Monoclinic,9,Cc,0.8878000000000004,False,False,0.1446,In: 0.2857; Te: 0.7143
mp-2804,LaP2,"La, P",2,0.0,Monoclinic,9,Cc,0.5563000000000002,False,False,0.5138,La: 0.3333; P: 0.6667
mp-29500,Ge7F16,"F, Ge",2,0.0002110073913055288,Monoclinic,9,Cc,4.3788,False,False,0.9065,Ge: 0.3043; F: 0.6957
mp-652621,In5Br7,"Br, In",2,0.006891360624999621,Monoclinic,9,Cc,2.1487,False,False,0.5817,In: 0.4167; Br: 0.5833
mp-1105127,MnP4,"Mn, P",2,0.001444687666666944,Monoclinic,9,Cc,0.5335999999999999,False,False,0.2560,Mn: 0.2000; P: 0.8000
mp-640556,SiO2,"O, Si",2,0.006745714583333395,Monoclinic,9,Cc,5.4721,False,False,0.7260,Si: 0.3333; O: 0.6667
mp-1340,Ga2Se3,"Ga, Se",2,0.0,Monoclinic,9,Cc,1.0435999999999999,False,False,0.3625,Ga: 0.4000; Se: 0.6000
mp-680731,Tl2Te3,"Te, Tl",2,0.03270461100000244,Monoclinic,9,Cc,0.6477000000000004,False,False,0.2352,Tl: 0.4000; Te: 0.6000
mp-29815,LaAs2,"As, La",2,0.0006786937500002921,Monoclinic,9,Cc,0.5974000000000004,False,False,0.5091,La: 0.3333; As: 0.6667
mp-539,Ga2S3,"Ga, S",2,0.0,Monoclinic,9,Cc,1.7106,False,False,0.3772,Ga: 0.4000; S: 0.6000
mp-555235,SiO2,"O, Si",2,0.0069087930555564725,Monoclinic,9,Cc,5.6842999999999995,False,False,0.7260,Si: 0.3333; O: 0.6667
mp-11674,Al2Se3,"Al, Se",2,0.0,Monoclinic,9,Cc,1.8004000000000002,False,False,0.4605,Al: 0.4000; Se: 0.6000
mp-471,CdAs2,"As, Cd",2,0.0,Tetragonal,98,I4_122,0.13319999999999999,False,False,0.2310,Cd: 0.3333; As: 0.6667
mp-2739,TeO2,"O, Te",2,0.0005973924999977953,Tetragonal,96,P4_32_12,2.8307,False,False,0.6317,Te: 0.3333; O: 0.6667
mp-618991,Cu2S,"Cu, S",2,0.019474473958332794,Tetragonal,96,P4_32_12,0.13030000000000008,False,False,0.3206,Cu: 0.6667; S: 0.3333
mp-559872,SiO2,"O, Si",2,0.00940804222222269,Tetragonal,96,P4_32_12,5.610600000000001,False,False,0.7260,Si: 0.3333; O: 0.6667
mp-913,CdP2,"Cd, P",2,0.0,Tetragonal,96,P4_32_12,1.4556,False,False,0.2357,Cd: 0.3333; P: 0.6667
mp-11025,ZnP2,"P, Zn",2,0.0,Tetragonal,96,P4_32_12,1.5787,False,False,0.2546,Zn: 0.3333; P: 0.6667
mp-28320,Pt3I8,"I, Pt",2,0.0,Tetragonal,92,P4_12_12,0.6834000000000002,False,False,0.1692,Pt: 0.2727; I: 0.7273
mp-555434,As2O5,"As, O",2,9.635821428410907e-05,Tetragonal,92,P4_12_12,1.6284999999999998,False,False,0.5692,As: 0.2857; O: 0.7143
mp-680178,In5Br7,"Br, In",2,0.0060473880208333775,Tetragonal,92,P4_12_12,2.0042999999999997,False,False,0.5817,In: 0.4167; Br: 0.5833
mp-2782,ZnP2,"P, Zn",2,4.786666666589667e-06,Tetragonal,92,P4_12_12,1.4620000000000002,False,False,0.2546,Zn: 0.3333; P: 0.6667
mp-7623,MgAs4,"As, Mg",2,0.0,Tetragonal,92,P4_12_12,0.8144,False,False,0.3480,Mg: 0.2000; As: 0.8000
mp-557,TeO2,"O, Te",2,0.0004988908333318776,Tetragonal,92,P4_12_12,2.8043999999999993,False,False,0.6317,Te: 0.3333; O: 0.6667
mp-7812,GeO2,"Ge, O",2,0.09336300499999872,Tetragonal,92,P4_12_12,3.2779,False,False,0.6741,Ge: 0.3333; O: 0.6667
mp-1102227,CO2,"C, O",2,0.0168115783333338,Tetragonal,92,P4_12_12,6.4314,False,False,0.4196,C: 0.3333; O: 0.6667
mp-696735,H2O,"H, O",2,0.006665027499999532,Tetragonal,92,P4_12_12,5.4898,False,False,0.5845,H: 0.6667; O: 0.3333
mp-7457,SnF2,"F, Sn",2,0.005851616250000191,Tetragonal,92,P4_12_12,3.3819000000000004,False,False,0.9522,Sn: 0.3333; F: 0.6667
mp-6945,SiO2,"O, Si",2,0.005370743055555849,Tetragonal,92,P4_12_12,5.503699999999999,False,False,0.7260,Si: 0.3333; O: 0.6667
mp-561066,TlS,"S, Tl",2,0.028092917447914534,Tetragonal,92,P4_12_12,0.8102,False,False,0.4800,Tl: 0.5000; S: 0.5000
mp-1196036,WI3,"I, W",2,0.04722941333333264,Tetragonal,92,P4_12_12,1.0734,False,False,0.1299,W: 0.2500; I: 0.7500
mp-14587,ZnP4,"P, Zn",2,0.06342556091666651,Tetragonal,92,P4_12_12,0.9662999999999995,False,False,0.2160,Zn: 0.2000; P: 0.8000
mp-12112,CdP2,"Cd, P",2,7.420833334492727e-07,Tetragonal,92,P4_12_12,1.4562000000000004,False,False,0.2357,Cd: 0.3333; P: 0.6667