material_id,formula,elements,num_elements,energy_above_hull,crystal_system,spacegroup_number,spacegroup_symbol,band_gap,theoretical,is_metal,electronegativity_difference,atomic_concentrations
mp-30953,GaBr3,"Br, Ga",2,0.0,Monoclinic,14,P2_1/c,3.3559,False,False,0.4980,Ga: 0.2500; Br: 0.7500
mp-581212,Cu2S,"Cu, S",2,0.012637958263891136,Monoclinic,14,P2_1/c,0.2778999999999998,False,False,0.3206,Cu: 0.6667; S: 0.3333
mp-1204039,CsSb,"Cs, Sb",2,0.0003872768750028399,Monoclinic,14,P2_1/c,0.5215999999999998,False,False,0.6300,Cs: 0.5000; Sb: 0.5000
mp-28294,Sb11F43,"F, Sb",2,0.00046474858798895013,Monoclinic,14,P2_1/c,3.5092999999999996,False,False,0.7773,Sb: 0.2037; F: 0.7963
mp-13568,NdS2,"Nd, S",2,0.0,Monoclinic,14,P2_1/c,0.3379000000000003,False,False,0.6788,Nd: 0.3333; S: 0.6667
mp-1190647,Ge3F8,"F, Ge",2,0.0,Monoclinic,14,P2_1/c,4.2902,False,False,0.8774,Ge: 0.2727; F: 0.7273
mp-29281,Th2P11,"P, Th",2,0.026122633119655347,Monoclinic,14,P2_1/c,0.32509999999999994,False,False,0.3211,Th: 0.1538; P: 0.8462
mp-29369,Sb7F29,"F, Sb",2,0.0,Monoclinic,14,P2_1/c,3.5953,False,False,0.7638,Sb: 0.1944; F: 0.8056
mp-27697,ThI4,"I, Th",2,0.0,Monoclinic,14,P2_1/c,1.6178,False,False,0.5440,Th: 0.2000; I: 0.8000
mp-7262,ZnAs2,"As, Zn",2,0.0,Monoclinic,14,P2_1/c,0.22409999999999997,False,False,0.2498,Zn: 0.3333; As: 0.6667
mp-23262,Bi2O3,"Bi, O",2,0.0,Monoclinic,14,P2_1/c,2.1944999999999997,False,False,0.6957,Bi: 0.4000; O: 0.6000
mp-23216,SnBr4,"Br, Sn",2,0.0,Monoclinic,14,P2_1/c,2.7107,False,False,0.4000,Sn: 0.2000; Br: 0.8000
mp-568483,NbCl5,"Cl, Nb",2,0.000738455138888483,Monoclinic,14,P2_1/c,2.2907,False,False,0.5814,Nb: 0.1667; Cl: 0.8333
mp-29504,ClF,"Cl, F",2,0.07123128770833276,Monoclinic,14,P2_1/c,2.0897,False,False,0.4100,Cl: 0.5000; F: 0.5000
mp-10487,RbSb,"Rb, Sb",2,0.0,Monoclinic,14,P2_1/c,0.7347000000000001,False,False,0.6150,Rb: 0.5000; Sb: 0.5000
mp-504825,SeCl,"Cl, Se",2,0.01918104957031197,Monoclinic,14,P2_1/c,2.1951,False,False,0.3050,Se: 0.5000; Cl: 0.5000
mp-1101873,ErS2,"Er, S",2,0.026628828420140138,Monoclinic,14,P2_1/c,0.3512000000000004,False,False,0.6317,Er: 0.3333; S: 0.6667
mp-27990,B2H5,"B, H",2,0.007053553750000496,Monoclinic,14,P2_1/c,6.2615,False,False,0.0723,B: 0.2857; H: 0.7143
mp-1194773,SiS2,"S, Si",2,0.04442881111111063,Monoclinic,14,P2_1/c,2.8836999999999997,False,False,0.3206,Si: 0.3333; S: 0.6667
mp-1154,Ho4C7,"C, Ho",2,0.0,Monoclinic,14,P2_1/c,0.4560999999999993,False,False,0.6350,Ho: 0.3636; C: 0.6364
mp-641,As2S3,"As, S",2,6.126899999969737e-05,Monoclinic,14,P2_1/c,2.0989,False,False,0.1960,As: 0.4000; S: 0.6000
mp-23170,IO2,"I, O",2,0.0061811170833312445,Monoclinic,14,P2_1/c,1.4625,False,False,0.3677,I: 0.3333; O: 0.6667
mp-1018891,PdCl2,"Cl, Pd",2,0.002497056666667774,Monoclinic,14,P2_1/c,0.5895,False,False,0.4525,Pd: 0.3333; Cl: 0.6667
mp-8200,AgP2,"Ag, P",2,0.0009195113636373264,Monoclinic,14,P2_1/c,0.6586999999999996,False,False,0.1226,Ag: 0.3333; P: 0.6667
mp-23185,XeF4,"F, Xe",2,0.0,Monoclinic,14,P2_1/c,2.8624,False,False,0.5520,Xe: 0.2000; F: 0.8000
mp-15954,As2Rh,"As, Rh",2,0.0,Monoclinic,14,P2_1/c,0.2625000000000002,False,False,0.0471,As: 0.6667; Rh: 0.3333
mp-542622,P4O7,"O, P",2,0.0413031133636359,Monoclinic,14,P2_1/c,4.054,False,False,0.6013,P: 0.3636; O: 0.6364
mp-524,Ba3As14,"As, Ba",2,0.0,Monoclinic,14,P2_1/c,1.0907,False,False,0.4918,Ba: 0.1765; As: 0.8235
mp-27342,Ge5F12,"F, Ge",2,9.456029411936129e-06,Monoclinic,14,P2_1/c,4.3594,False,False,0.8976,Ge: 0.2941; F: 0.7059
mp-17407,Au3F8,"Au, F",2,0.0,Monoclinic,14,P2_1/c,0.3012999999999999,False,False,0.6413,Au: 0.2727; F: 0.7273
mp-30092,TiCl4,"Cl, Ti",2,0.0,Monoclinic,14,P2_1/c,3.1553,False,False,0.6480,Ti: 0.2000; Cl: 0.8000
mp-1806,RbO3,"O, Rb",2,0.08383552124999927,Monoclinic,14,P2_1/c,0.8986,False,False,1.1345,Rb: 0.2500; O: 0.7500
mp-570539,Rb3As7,"As, Rb",2,0.0031152961875005047,Monoclinic,14,P2_1/c,1.5282,False,False,0.6232,Rb: 0.3000; As: 0.7000
mp-1105406,BaP3,"Ba, P",2,0.011488119375000494,Monoclinic,14,P2_1/c,1.3658000000000001,False,False,0.5629,Ba: 0.2500; P: 0.7500
mp-13961,NdAs2,"As, Nd",2,0.020310922500001993,Monoclinic,14,P2_1/c,0.039400000000000546,False,False,0.4903,Nd: 0.3333; As: 0.6667
mp-1079720,AgO,"Ag, O",2,0.04234811749999956,Monoclinic,14,P2_1/c,0.11599999999999988,False,False,0.7550,Ag: 0.5000; O: 0.5000
mp-27200,B13H19,"B, H",2,0.026613134975142394,Monoclinic,14,P2_1/c,2.7668999999999997,False,False,0.0786,B: 0.4062; H: 0.5938
mp-567998,ICl,"Cl, I",2,0.0,Monoclinic,14,P2_1/c,1.8521999999999998,False,False,0.2500,I: 0.5000; Cl: 0.5000
mp-570989,UCl5,"Cl, U",2,0.0,Monoclinic,14,P2_1/c,0.3341,False,False,0.6634,U: 0.1667; Cl: 0.8333
mp-30529,B5H11,"B, H",2,0.02219420865767141,Monoclinic,14,P2_1/c,4.6651,False,False,0.0742,B: 0.3125; H: 0.6875
mp-561153,XeF3,"F, Xe",2,0.0,Monoclinic,14,P2_1/c,2.3756999999999997,False,False,0.5976,Xe: 0.2500; F: 0.7500
mp-569405,B3H5,"B, H",2,0.011612727504734188,Monoclinic,14,P2_1/c,3.6391,False,False,0.0775,B: 0.3750; H: 0.6250
mp-9588,LiP,"Li, P",2,0.0,Monoclinic,14,P2_1/c,0.8094999999999999,False,False,0.6050,Li: 0.5000; P: 0.5000
mp-542604,AsS,"As, S",2,0.024730568124999408,Monoclinic,14,P2_1/c,1.9737999999999998,False,False,0.2000,As: 0.5000; S: 0.5000
mp-555096,PrS2,"Pr, S",2,0.0,Monoclinic,14,P2_1/c,0.3462999999999994,False,False,0.6835,Pr: 0.3333; S: 0.6667
mp-1200885,Y4C7,"C, Y",2,0.0,Monoclinic,14,P2_1/c,0.6128,False,False,0.6398,Y: 0.3636; C: 0.6364
mp-1201338,V6O13,"O, V",2,0.04423242368421043,Monoclinic,14,P2_1/c,0.1772999999999998,False,False,0.8413,V: 0.3158; O: 0.6842
mp-2650,P4S7,"P, S",2,0.0,Monoclinic,14,P2_1/c,2.7617,False,False,0.1876,P: 0.3636; S: 0.6364
mp-1195922,EuP7,"Eu, P",2,0.0,Monoclinic,14,P2_1/c,0.37600000000000033,False,False,0.3324,Eu: 0.1250; P: 0.8750
mp-23305,EuI2,"Eu, I",2,0.008386589166666347,Monoclinic,14,P2_1/c,1.4092000000000002,False,False,0.6953,Eu: 0.3333; I: 0.6667
mp-1197907,W2Br5,"Br, W",2,0.01608404869047675,Monoclinic,14,P2_1/c,0.8696,False,False,0.2711,W: 0.2857; Br: 0.7143
mp-28860,P2Se5,"P, Se",2,0.020371351473215782,Monoclinic,14,P2_1/c,1.2912000000000001,False,False,0.1626,P: 0.2857; Se: 0.7143
mp-628742,Cs5Sb8,"Cs, Sb",2,0.0,Monoclinic,14,P2_1/c,0.5847000000000002,False,False,0.6130,Cs: 0.3846; Sb: 0.6154
mp-825726,WO3,"O, W",2,0.009396323437499632,Monoclinic,14,P2_1/c,1.6296,False,False,0.4677,W: 0.2500; O: 0.7500
mp-1178386,CsTe4,"Cs, Te",2,0.0,Monoclinic,14,P2_1/c,0.5148999999999995,False,False,0.5240,Cs: 0.2000; Te: 0.8000
mp-352,HfO2,"Hf, O",2,0.0,Monoclinic,14,P2_1/c,4.0165,False,False,1.0088,Hf: 0.3333; O: 0.6667
mp-15953,P2Rh,"P, Rh",2,0.0,Monoclinic,14,P2_1/c,0.37049999999999983,False,False,0.0424,P: 0.6667; Rh: 0.3333
mp-28319,PtI2,"I, Pt",2,0.0,Monoclinic,14,P2_1/c,1.2328000000000001,False,False,0.1791,Pt: 0.3333; I: 0.6667
mp-574086,SiBr4,"Br, Si",2,5.669625000237488e-05,Monoclinic,14,P2_1/c,4.1127,False,False,0.4240,Si: 0.2000; Br: 0.8000
mp-540943,SeBr,"Br, Se",2,0.06152715365234407,Monoclinic,14,P2_1/c,1.7553,False,False,0.2050,Se: 0.5000; Br: 0.5000
mp-2753,Tl4S3,"S, Tl",2,0.009123074126986985,Monoclinic,14,P2_1/c,0.8601000000000001,False,False,0.4751,Tl: 0.5714; S: 0.4286
mp-558247,Mo4O11,"Mo, O",2,0.0068658941190467004,Monoclinic,14,P2_1/c,0.03529999999999989,False,False,0.5660,Mo: 0.2667; O: 0.7333
mp-1201560,P7Pb,"P, Pb",2,0.0,Monoclinic,14,P2_1/c,0.8769999999999998,False,False,0.0463,P: 0.8750; Pb: 0.1250
mp-1582,As2O3,"As, O",2,0.0,Monoclinic,14,P2_1/c,4.0339,False,False,0.6173,As: 0.4000; O: 0.6000
mp-1105223,ZrF4,"F, Zr",2,0.0,Monoclinic,14,P2_1/c,5.3453,False,False,1.0600,Zr: 0.2000; F: 0.8000
mp-1105302,SrP2,"P, Sr",2,0.0,Monoclinic,14,P2_1/c,0.7968999999999999,False,False,0.5845,Sr: 0.3333; P: 0.6667
mp-540668,BS2,"B, S",2,0.0,Monoclinic,14,P2_1/c,2.4370000000000003,False,False,0.2546,B: 0.3333; S: 0.6667
mp-28391,SiCl4,"Cl, Si",2,0.0,Monoclinic,14,P2_1/c,5.5658,False,False,0.5040,Si: 0.2000; Cl: 0.8000
mp-571540,ZnCl2,"Cl, Zn",2,0.0012411769444433673,Monoclinic,14,P2_1/c,3.9778000000000002,False,False,0.7118,Zn: 0.3333; Cl: 0.6667
mp-556654,SiO2,"O, Si",2,0.012054572222222504,Monoclinic,14,P2_1/c,5.6055,False,False,0.7260,Si: 0.3333; O: 0.6667
mp-1200292,SiO2,"O, Si",2,0.01027549545139017,Monoclinic,14,P2_1/c,5.7088,False,False,0.7260,Si: 0.3333; O: 0.6667
mp-27634,TiBr4,"Br, Ti",2,0.00032362899999860417,Monoclinic,14,P2_1/c,2.7825,False,False,0.5680,Ti: 0.2000; Br: 0.8000
mp-1080439,P4Ru,"P, Ru",2,0.016163946333334067,Monoclinic,14,P2_1/c,0.7336999999999998,False,False,0.0040,P: 0.8000; Ru: 0.2000
mp-29657,NaGe,"Ge, Na",2,0.0,Monoclinic,14,P2_1/c,0.6651999999999998,False,False,0.5400,Na: 0.5000; Ge: 0.5000
mp-16897,Sr2Sb3,"Sb, Sr",2,0.0,Monoclinic,14,P2_1/c,0.13230000000000075,False,False,0.5389,Sr: 0.4000; Sb: 0.6000
mp-10155,P2Ir,"Ir, P",2,0.0,Monoclinic,14,P2_1/c,0.6331000000000007,False,False,0.0047,P: 0.6667; Ir: 0.3333
mp-556425,SbF4,"F, Sb",2,0.0,Monoclinic,14,P2_1/c,3.2371,False,False,0.7720,Sb: 0.2000; F: 0.8000
mp-636148,WO3,"O, W",2,0.030668768437498883,Monoclinic,14,P2_1/c,1.3918000000000001,False,False,0.4677,W: 0.2500; O: 0.7500
mp-27213,AuBr3,"Au, Br",2,0.0,Monoclinic,14,P2_1/c,0.7497,False,False,0.1819,Au: 0.2500; Br: 0.7500
mp-540625,GeSe2,"Ge, Se",2,0.0,Monoclinic,14,P2_1/c,1.4381000000000002,False,False,0.2546,Ge: 0.3333; Se: 0.6667
mp-1195,Ba3P14,"Ba, P",2,0.0,Monoclinic,14,P2_1/c,1.7751000000000001,False,False,0.4956,Ba: 0.1765; P: 0.8235
mp-1195383,As2O3,"As, O",2,0.006129172333332988,Monoclinic,14,P2_1/c,3.3787000000000003,False,False,0.6173,As: 0.4000; O: 0.6000
mp-909,As2Se3,"As, Se",2,0.0,Monoclinic,14,P2_1/c,1.4466,False,False,0.1813,As: 0.4000; Se: 0.6000
mp-706664,B10H13,"B, H",2,0.005489127574727526,Monoclinic,14,P2_1/c,3.3079,False,False,0.0793,B: 0.4348; H: 0.5652
mp-1103226,TbS2,"S, Tb",2,0.0,Monoclinic,14,P2_1/c,0.31479999999999997,False,False,0.6458,Tb: 0.3333; S: 0.6667
mp-1771,NO2,"N, O",2,0.0015355588888885663,Monoclinic,14,P2_1/c,2.7046,False,False,0.1886,N: 0.3333; O: 0.6667
mp-20078,Pb2O3,"O, Pb",2,0.0052394237499981955,Monoclinic,14,P2_1/c,1.0748999999999995,False,False,0.5438,Pb: 0.4000; O: 0.6000
mp-571011,CsI4,"Cs, I",2,0.0,Monoclinic,14,P2_1/c,1.7836,False,False,0.7480,Cs: 0.2000; I: 0.8000
mp-27164,FeP4,"Fe, P",2,0.005661479499998734,Monoclinic,14,P2_1/c,0.7014000000000014,False,False,0.1440,Fe: 0.2000; P: 0.8000
mp-927,CuP2,"Cu, P",2,0.0,Monoclinic,14,P2_1/c,0.8679000000000006,False,False,0.1367,Cu: 0.3333; P: 0.6667
mp-31487,NbI5,"I, Nb",2,0.016002737916669396,Monoclinic,14,P2_1/c,0.5982999999999998,False,False,0.3950,Nb: 0.1667; I: 0.8333
mp-567604,GeBr4,"Br, Ge",2,0.0009764702499985844,Monoclinic,14,P2_1/c,2.9329,False,False,0.3800,Ge: 0.2000; Br: 0.8000
mp-562412,Ag3F8,"Ag, F",2,0.0,Monoclinic,14,P2_1/c,0.30689999999999995,False,False,0.9130,Ag: 0.2727; F: 0.7273
mp-1197128,Bi2O3,"Bi, O",2,0.01564853900000074,Monoclinic,14,P2_1/c,2.4549000000000003,False,False,0.6957,Bi: 0.4000; O: 0.6000
mp-1087509,P4Os,"Os, P",2,0.017022060666668892,Monoclinic,14,P2_1/c,0.6720999999999995,False,False,0.0040,P: 0.8000; Os: 0.2000
mp-30086,GeCl4,"Cl, Ge",2,0.0,Monoclinic,14,P2_1/c,4.1525,False,False,0.4600,Ge: 0.2000; Cl: 0.8000
mp-1106381,NaAs,"As, Na",2,0.0,Monoclinic,14,P2_1/c,0.5907,False,False,0.6250,Na: 0.5000; As: 0.5000
mp-669426,SiO2,"O, Si",2,0.007127133888889858,Monoclinic,14,P2_1/c,5.537999999999999,False,False,0.7260,Si: 0.3333; O: 0.6667
mp-560366,XeF6,"F, Xe",2,0.0,Monoclinic,14,P2_1/c,2.7851,False,False,0.4829,Xe: 0.1429; F: 0.8571
mp-1392,ZnP2,"P, Zn",2,0.0011486687499999704,Monoclinic,14,P2_1/c,0.7480000000000002,False,False,0.2546,Zn: 0.3333; P: 0.6667
mp-556328,AsS,"As, S",2,0.02471794281249906,Monoclinic,14,P2_1/c,1.9798000000000002,False,False,0.2000,As: 0.5000; S: 0.5000
mp-1105095,BaP2,"Ba, P",2,0.0,Monoclinic,14,P2_1/c,0.5585999999999993,False,False,0.6128,Ba: 0.3333; P: 0.6667
mp-1102408,PrAs2,"As, Pr",2,0.01262491166666635,Monoclinic,14,P2_1/c,0.048200000000000465,False,False,0.4950,Pr: 0.3333; As: 0.6667
mp-16922,Ba2Sb3,"Ba, Sb",2,0.0,Monoclinic,14,P2_1/c,0.2850999999999999,False,False,0.5683,Ba: 0.4000; Sb: 0.6000
mp-610517,Ag2S,"Ag, S",2,0.029025886666666167,Monoclinic,14,P2_1/c,1.0006999999999997,False,False,0.3064,Ag: 0.6667; S: 0.3333
mp-558149,BF3,"B, F",2,0.0013903446875005443,Monoclinic,14,P2_1/c,8.2939,False,False,0.8400,B: 0.2500; F: 0.7500
mp-504902,SiBr2,"Br, Si",2,0.039190582874999436,Monoclinic,14,P2_1/c,2.6904,False,False,0.4997,Si: 0.3333; Br: 0.6667
mp-1095479,GdS2,"Gd, S",2,0.005439691239583766,Monoclinic,14,P2_1/c,0.1922000000000006,False,False,0.6505,Gd: 0.3333; S: 0.6667
mp-610430,BiBr3,"Bi, Br",2,0.061744708750000044,Monoclinic,14,P2_1/c,2.5189000000000004,False,False,0.4070,Bi: 0.2500; Br: 0.7500
mp-1102055,LaAs2,"As, La",2,0.0,Monoclinic,14,P2_1/c,0.18400000000000016,False,False,0.5091,La: 0.3333; As: 0.6667
mp-1189507,CsO3,"Cs, O",2,0.08244887781249943,Monoclinic,14,P2_1/c,0.9415,False,False,1.1475,Cs: 0.2500; O: 0.7500
mp-1199938,P2S7,"P, S",2,0.0,Monoclinic,14,P2_1/c,2.1425,False,False,0.1621,P: 0.2222; S: 0.7778
mp-1103295,AlF3,"Al, F",2,0.002904201249999794,Trigonal,150,P321,7.4257,False,False,1.0262,Al: 0.2500; F: 0.7500
mp-1181398,FeF3,"F, Fe",2,0.049932257500000965,Trigonal,150,P321,3.0517,False,False,0.9310,Fe: 0.2500; F: 0.7500
mp-23165,PtBr3,"Br, Pt",2,0.0,Trigonal,148,R-3,0.9518000000000001,False,False,0.2944,Pt: 0.2500; Br: 0.7500
mp-31134,PtCl3,"Cl, Pt",2,0.0,Trigonal,148,R-3,1.0698,False,False,0.3811,Pt: 0.2500; Cl: 0.7500
mp-23309,ScCl3,"Cl, Sc",2,0.0,Trigonal,148,R-3,3.8723,False,False,0.7794,Sc: 0.2500; Cl: 0.7500
mp-1078195,SiI3,"I, Si",2,0.0,Trigonal,148,R-3,2.9566,False,False,0.3291,Si: 0.2500; I: 0.7500
mp-1203190,Mn2O3,"Mn, O",2,0.07640607924999898,Trigonal,148,R-3,0.21880000000000033,False,False,0.9259,Mn: 0.4000; O: 0.6000
mp-27734,CrBr3,"Br, Cr",2,0.0,Trigonal,148,R-3,1.2759,False,False,0.5629,Cr: 0.2500; Br: 0.7500
mp-23269,WCl3,"Cl, W",2,0.02909921125000281,Trigonal,148,R-3,0.06410000000000005,False,False,0.3464,W: 0.2500; Cl: 0.7500
mp-567504,CrCl3,"Cl, Cr",2,0.0,Trigonal,148,R-3,1.5182,False,False,0.6495,Cr: 0.2500; Cl: 0.7500
mp-571442,YI3,"I, Y",2,0.0,Trigonal,148,R-3,3.0417,False,False,0.6235,Y: 0.2500; I: 0.7500
mp-28483,WBr6,"Br, W",2,0.0,Trigonal,148,R-3,1.0698999999999999,False,False,0.2100,W: 0.1429; Br: 0.8571
mp-22849,BiI3,"Bi, I",2,0.0,Trigonal,148,R-3,2.5349,False,False,0.2771,Bi: 0.2500; I: 0.7500
mp-571518,WCl6,"Cl, W",2,0.0,Trigonal,148,R-3,1.9169,False,False,0.2799,W: 0.1429; Cl: 0.8571
mp-28241,ZrI2,"I, Zr",2,0.059022398888888716,Trigonal,148,R-3,0.07540000000000013,False,False,0.6270,Zr: 0.3333; I: 0.6667
mp-23281,SbI3,"I, Sb",2,0.0,Trigonal,148,R-3,2.1446000000000005,False,False,0.2641,Sb: 0.2500; I: 0.7500
mp-29487,PdCl2,"Cl, Pd",2,0.0,Trigonal,148,R-3,1.5592000000000001,False,False,0.4525,Pd: 0.3333; Cl: 0.6667
mp-24043,H2O,"H, O",2,0.005572493055555405,Trigonal,148,R-3,5.4391,False,False,0.5845,H: 0.6667; O: 0.3333
mp-23218,AsI3,"As, I",2,0.0,Trigonal,148,R-3,2.2375000000000003,False,False,0.2078,As: 0.2500; I: 0.7500
mp-558115,SiO2,"O, Si",2,0.008596245666666391,Trigonal,148,R-3,5.6222,False,False,0.7260,Si: 0.3333; O: 0.6667
mp-559550,SiO2,"O, Si",2,0.015880222222222073,Trigonal,148,R-3,5.6097,False,False,0.7260,Si: 0.3333; O: 0.6667
mp-569890,CrCl3,"Cl, Cr",2,0.006774582500000292,Trigonal,153,P3_212,1.4598,False,False,0.6495,Cr: 0.2500; Cl: 0.7500
mp-358,HgTe,"Hg, Te",2,0.03703848333333326,Trigonal,152,P3_121,0.48019999999999996,False,False,0.0500,Hg: 0.5000; Te: 0.5000
mp-7000,SiO2,"O, Si",2,0.0,Trigonal,152,P3_121,5.719,False,False,0.7260,Si: 0.3333; O: 0.6667
mp-733,GeO2,"Ge, O",2,0.07958279611111152,Trigonal,152,P3_121,3.2500999999999998,False,False,0.6741,Ge: 0.3333; O: 0.6667
mp-15951,BeF2,"Be, F",2,0.00039670611111120024,Trigonal,152,P3_121,8.3235,False,False,1.1361,Be: 0.3333; F: 0.6667
mp-7826,HgO,"Hg, O",2,0.002898971249997828,Trigonal,152,P3_121,1.3101,False,False,0.7200,Hg: 0.5000; O: 0.5000
mp-306,B2O3,"B, O",2,0.0,Trigonal,152,P3_121,6.3017,False,False,0.6859,B: 0.4000; O: 0.6000
mp-31033,HfF4,"F, Hf",2,0.0,Monoclinic,15,C2/c,5.4058,False,False,1.0720,Hf: 0.2000; F: 0.8000
mp-27148,BeP2,"Be, P",2,0.0,Monoclinic,15,C2/c,0.3944000000000001,False,False,0.2923,Be: 0.3333; P: 0.6667
mp-10497,SrC2,"C, Sr",2,0.05353003777777854,Monoclinic,15,C2/c,2.2919,False,False,0.7542,Sr: 0.3333; C: 0.6667
mp-570355,PbCl4,"Cl, Pb",2,0.09137346449999484,Monoclinic,15,C2/c,2.0991,False,False,0.3320,Pb: 0.2000; Cl: 0.8000
mp-569059,HfI4,"Hf, I",2,0.0,Monoclinic,15,C2/c,2.3487,False,False,0.5440,Hf: 0.2000; I: 0.8000
mp-567907,P3N5,"N, P",2,0.0,Monoclinic,15,C2/c,3.5599999999999996,False,False,0.4115,P: 0.3750; N: 0.6250
mp-569561,TeCl4,"Cl, Te",2,0.0,Monoclinic,15,C2/c,3.0452000000000004,False,False,0.4240,Te: 0.2000; Cl: 0.8000
mp-27436,PaCl5,"Cl, Pa",2,0.0,Monoclinic,15,C2/c,2.4189,False,False,0.6186,Pa: 0.1667; Cl: 0.8333
mp-1197742,In2Te5,"In, Te",2,0.0,Monoclinic,15,C2/c,0.8515000000000006,False,False,0.1446,In: 0.2857; Te: 0.7143
mp-1080677,Tl2Se3,"Se, Tl",2,0.03711518418750259,Monoclinic,15,C2/c,0.8149999999999995,False,False,0.4556,Tl: 0.4000; Se: 0.6000
mp-1194272,ZrF4,"F, Zr",2,0.0037675211666670094,Monoclinic,15,C2/c,4.6108,False,False,1.0600,Zr: 0.2000; F: 0.8000
mp-573812,Cs3As11,"As, Cs",2,0.0,Monoclinic,15,C2/c,1.3912000000000002,False,False,0.5704,Cs: 0.2143; As: 0.7857
mp-2843,SnF2,"F, Sn",2,0.0,Monoclinic,15,C2/c,3.2704,False,False,0.9522,Sn: 0.3333; F: 0.6667
mp-1189723,NaSi,"Na, Si",2,0.04964014234913794,Monoclinic,15,C2/c,1.2787000000000002,False,False,0.4850,Na: 0.5000; Si: 0.5000
mp-558380,Cr2F5,"Cr, F",2,0.002589992142858044,Monoclinic,15,C2/c,1.5997,False,False,1.0481,Cr: 0.2857; F: 0.7143
mp-680422,CBr4,"Br, C",2,0.0,Monoclinic,15,C2/c,2.9265,False,False,0.1640,C: 0.2000; Br: 0.8000
mp-547094,RuO4,"O, Ru",2,0.04027664099999839,Monoclinic,15,C2/c,2.3853,False,False,0.4960,Ru: 0.2000; O: 0.8000
mp-1575,CaC2,"C, Ca",2,0.015164513333332685,Monoclinic,15,C2/c,2.0383,False,False,0.7307,Ca: 0.3333; C: 0.6667
mp-486,NiP2,"Ni, P",2,0.006562992499995701,Monoclinic,15,C2/c,0.37130000000000063,False,False,0.1320,Ni: 0.3333; P: 0.6667
mp-21325,KO2,"K, O",2,0.03878320999999918,Monoclinic,15,C2/c,0.1547,False,False,1.2351,K: 0.3333; O: 0.6667
mp-556560,MnF3,"F, Mn",2,0.0,Monoclinic,15,C2/c,0.49360000000000004,False,False,1.0522,Mn: 0.2500; F: 0.7500
mp-1167,CF4,"C, F",2,0.0,Monoclinic,15,C2/c,9.3354,False,False,0.5720,C: 0.2000; F: 0.8000
mp-706490,Mo9O26,"Mo, O",2,0.0018073744642865819,Monoclinic,15,C2/c,0.4984000000000002,False,False,0.5594,Mo: 0.2571; O: 0.7429
mp-542844,V2O5,"O, V",2,0.06063356928571473,Monoclinic,15,C2/c,1.3590000000000002,False,False,0.8177,V: 0.2857; O: 0.7143
mp-28266,P2Pd,"P, Pd",2,0.0,Monoclinic,15,C2/c,0.34189999999999987,False,False,0.0047,P: 0.6667; Pd: 0.3333
mp-571193,MnP4,"Mn, P",2,0.004488425166665699,Monoclinic,15,C2/c,0.42239999999999966,False,False,0.2560,Mn: 0.2000; P: 0.8000
mp-582753,Tl2Te,"Te, Tl",2,0.0,Monoclinic,15,C2/c,0.6448,False,False,0.2263,Tl: 0.6667; Te: 0.3333
mp-28256,V2Se9,"Se, V",2,0.0,Monoclinic,15,C2/c,0.722,False,False,0.3548,V: 0.1818; Se: 0.8182
mp-28268,PtI3,"I, Pt",2,0.0,Monoclinic,15,C2/c,0.3481000000000001,False,False,0.1645,Pt: 0.2500; I: 0.7500
mp-651707,SiO2,"O, Si",2,0.011859404365079484,Monoclinic,15,C2/c,5.7241,False,False,0.7260,Si: 0.3333; O: 0.6667
mp-622640,V3O7,"O, V",2,0.020618242333334535,Monoclinic,15,C2/c,0.6292,False,False,0.8294,V: 0.3000; O: 0.7000
mp-646895,SiO2,"O, Si",2,0.014255275520833166,Monoclinic,15,C2/c,5.6942,False,False,0.7260,Si: 0.3333; O: 0.6667
mp-12787,SiO2,"O, Si",2,0.0027721855555569164,Monoclinic,15,C2/c,5.6273,False,False,0.7260,Si: 0.3333; O: 0.6667
mp-1004532,CCl4,"C, Cl",2,0.0,Monoclinic,15,C2/c,4.5297,False,False,0.2440,C: 0.2000; Cl: 0.8000
mp-540675,SeCl4,"Cl, Se",2,0.0,Monoclinic,15,C2/c,2.9491,False,False,0.2440,Se: 0.2000; Cl: 0.8000
mp-542001,CeF4,"Ce, F",2,0.0,Monoclinic,15,C2/c,2.1473,False,False,1.1440,Ce: 0.2000; F: 0.8000