material_id,formula,elements,num_elements,energy_above_hull,crystal_system,spacegroup_number,spacegroup_symbol,band_gap,theoretical,is_metal,electronegativity_difference,atomic_concentrations
mp-27814,CS14,"C, S",2,0.0,Trigonal,166,R-3m,2.5569,False,False,0.0075,C: 0.0667; S: 0.9333
mp-624,B6As,"As, B",2,0.0,Trigonal,166,R-3m,2.6454000000000004,False,False,0.0490,B: 0.8571; As: 0.1429
mp-23229,FeCl2,"Cl, Fe",2,0.021833396666667504,Trigonal,166,R-3m,0.03569999999999984,False,False,0.6270,Fe: 0.3333; Cl: 0.6667
mp-1190915,TcCl3,"Cl, Tc",2,0.0,Trigonal,166,R-3m,0.6643000000000001,False,False,0.5456,Tc: 0.2500; Cl: 0.7500
mp-23240,CoCl2,"Cl, Co",2,0.0,Trigonal,166,R-3m,0.08430000000000004,False,False,0.6034,Co: 0.3333; Cl: 0.6667
mp-1346,B6O,"B, O",2,0.0,Trigonal,166,R-3m,1.8563999999999998,False,False,0.4899,B: 0.8571; O: 0.1429
mp-540789,PbI2,"I, Pb",2,0.0007709133333313467,Trigonal,166,R-3m,2.3735,False,False,0.1556,Pb: 0.3333; I: 0.6667
mp-34202,Bi2Te3,"Bi, Te",2,0.0,Trigonal,166,R-3m,0.3388,False,False,0.0392,Bi: 0.4000; Te: 0.6000
mp-580062,Bi8Te9,"Bi, Te",2,0.007293502941178698,Trigonal,166,R-3m,0.08150000000000013,False,False,0.0399,Bi: 0.4706; Te: 0.5294
mp-22883,PbI2,"I, Pb",2,0.0010258233333315658,Trigonal,166,R-3m,2.4224,False,False,0.1556,Pb: 0.3333; I: 0.6667
mp-568692,In4Br7,"Br, In",2,0.016080847215909078,Trigonal,166,R-3m,2.2604,False,False,0.5676,In: 0.3636; Br: 0.6364
mp-1201,Sb2Te3,"Sb, Te",2,0.0,Trigonal,166,R-3m,0.13140000000000018,False,False,0.0245,Sb: 0.4000; Te: 0.6000
mp-569595,PbI2,"I, Pb",2,0.0010332383333304662,Trigonal,166,R-3m,2.4080000000000004,False,False,0.1556,Pb: 0.3333; I: 0.6667
mp-23174,ReCl3,"Cl, Re",2,0.0,Trigonal,166,R-3m,0.9667999999999999,False,False,0.5456,Re: 0.2500; Cl: 0.7500
mp-27771,Nb3Br8,"Br, Nb",2,0.0,Trigonal,166,R-3m,0.03069999999999995,False,False,0.6057,Nb: 0.2727; Br: 0.7273
mp-23290,PtCl2,"Cl, Pt",2,0.0,Trigonal,166,R-3m,1.7917,False,False,0.4148,Pt: 0.3333; Cl: 0.6667
mp-541837,Bi2Se3,"Bi, Se",2,0.0,Trigonal,166,R-3m,0.3769,False,False,0.2596,Bi: 0.4000; Se: 0.6000
mp-1591,Al4C3,"Al, C",2,0.0,Trigonal,166,R-3m,1.3154000000000003,False,False,0.4652,Al: 0.5714; C: 0.4286
mp-22003,NaN3,"N, Na",2,0.0,Trigonal,166,R-3m,4.0268,False,False,0.9137,Na: 0.2500; N: 0.7500
mp-27484,Tl2O,"O, Tl",2,0.0,Trigonal,166,R-3m,0.5717000000000003,False,False,0.8580,Tl: 0.6667; O: 0.3333
mp-9897,Te3As2,"As, Te",2,0.02321317550000046,Trigonal,166,R-3m,0.39010000000000034,False,False,0.0392,Te: 0.6000; As: 0.4000
mp-9889,GaS,"Ga, S",2,0.004907736250000738,Trigonal,166,R-3m,1.8664999999999998,False,False,0.3850,Ga: 0.5000; S: 0.5000
mp-22881,CdCl2,"Cd, Cl",2,0.0,Trigonal,166,R-3m,3.5244,False,False,0.6930,Cd: 0.3333; Cl: 0.6667
mp-467,Th3N4,"N, Th",2,0.0,Trigonal,166,R-3m,1.4415000000000004,False,False,0.8611,Th: 0.4286; N: 0.5714
mp-1190284,Bi8Se9,"Bi, Se",2,0.0,Trigonal,166,R-3m,0.002500000000000391,False,False,0.2645,Bi: 0.4706; Se: 0.5294
mp-7988,Cs2O,"Cs, O",2,0.0,Trigonal,166,R-3m,0.5831999999999997,False,False,1.2492,Cs: 0.6667; O: 0.3333
mp-28395,B6P,"B, P",2,0.0,Trigonal,166,R-3m,2.4757,False,False,0.0525,B: 0.8571; P: 0.1429
mp-568289,CdI2,"Cd, I",2,0.00205046066666581,Trigonal,166,R-3m,2.3663,False,False,0.4573,Cd: 0.3333; I: 0.6667
mp-17909,SiO2,"O, Si",2,0.02138735666666669,Trigonal,166,R-3m,5.7313,False,False,0.7260,Si: 0.3333; O: 0.6667
mp-28233,MnCl2,"Cl, Mn",2,0.0,Trigonal,166,R-3m,1.7925999999999997,False,False,0.7590,Mn: 0.3333; Cl: 0.6667
mp-23184,BCl3,"B, Cl",2,0.0,Hexagonal,176,P6_3/m,4.7135,False,False,0.4850,B: 0.2500; Cl: 0.7500
mp-582011,CeCl3,"Ce, Cl",2,0.0,Hexagonal,176,P6_3/m,0.011099999999999888,False,False,0.8833,Ce: 0.2500; Cl: 0.7500
mp-1105170,SnBr2,"Br, Sn",2,0.0019086244444430633,Hexagonal,176,P6_3/m,2.4179000000000004,False,False,0.4714,Sn: 0.3333; Br: 0.6667
mp-13852,Ge3N4,"Ge, N",2,0.00020272428571388446,Hexagonal,176,P6_3/m,1.9025999999999996,False,False,0.5097,Ge: 0.4286; N: 0.5714
mp-23189,BI3,"B, I",2,0.0,Hexagonal,176,P6_3/m,2.6901,False,False,0.2685,B: 0.2500; I: 0.7500
mp-23183,NdCl3,"Cl, Nd",2,0.0,Hexagonal,176,P6_3/m,4.299799999999999,False,False,0.8747,Nd: 0.2500; Cl: 0.7500
mp-23263,LaBr3,"Br, La",2,0.0,Hexagonal,176,P6_3/m,2.9266,False,False,0.8054,La: 0.2500; Br: 0.7500
mp-988,Si3N4,"N, Si",2,0.0,Hexagonal,176,P6_3/m,4.2503,False,False,0.5642,Si: 0.4286; N: 0.5714
mp-568170,TbCl3,"Cl, Tb",2,0.007308905000000365,Hexagonal,176,P6_3/m,4.1201,False,False,0.8444,Tb: 0.2500; Cl: 0.7500
mp-22896,LaCl3,"Cl, La",2,0.0,Hexagonal,176,P6_3/m,3.6454,False,False,0.8920,La: 0.2500; Cl: 0.7500
mp-23211,PrCl3,"Cl, Pr",2,0.0,Hexagonal,176,P6_3/m,4.345400000000001,False,False,0.8790,Pr: 0.2500; Cl: 0.7500
mp-23278,NpCl3,"Cl, Np",2,0.0,Hexagonal,176,P6_3/m,0.0472999999999999,False,False,0.7794,Np: 0.2500; Cl: 0.7500
mp-23225,BBr3,"B, Br",2,0.0,Hexagonal,176,P6_3/m,3.8273,False,False,0.3984,B: 0.2500; Br: 0.7500
mp-23221,PrBr3,"Br, Pr",2,0.0,Hexagonal,176,P6_3/m,3.4295999999999998,False,False,0.7924,Pr: 0.2500; Br: 0.7500
mp-27971,AcCl3,"Ac, Cl",2,0.0,Hexagonal,176,P6_3/m,5.0865,False,False,0.8920,Ac: 0.2500; Cl: 0.7500
mp-27972,AcBr3,"Ac, Br",2,0.0,Hexagonal,176,P6_3/m,4.103299999999999,False,False,0.8054,Ac: 0.2500; Br: 0.7500
mp-23265,GdCl3,"Cl, Gd",2,0.0,Hexagonal,176,P6_3/m,2.0054,False,False,0.8487,Gd: 0.2500; Cl: 0.7500
mp-556296,BaS3,"Ba, S",2,0.04356796437499888,Orthorhombic,18,P2_12_12,1.0473,False,False,0.7318,Ba: 0.2500; S: 0.7500
mp-8939,Si2W,"Si, W",2,0.067845325555556,Hexagonal,180,P6_222,0.033799999999999386,False,False,0.2168,Si: 0.6667; W: 0.3333
mp-6922,SiO2,"O, Si",2,0.009076502222223226,Hexagonal,180,P6_222,5.5311,False,False,0.7260,Si: 0.3333; O: 0.6667
mp-8938,Si2Mo,"Mo, Si",2,0.03144123777777885,Hexagonal,180,P6_222,0.09360000000000035,False,False,0.1226,Si: 0.6667; Mo: 0.3333
mp-558118,BeF2,"Be, F",2,0.0008229350000013014,Hexagonal,180,P6_222,8.0867,False,False,1.1361,Be: 0.3333; F: 0.6667
mp-1222,CrSi2,"Cr, Si",2,0.01295319444444587,Hexagonal,180,P6_222,0.3638999999999992,False,False,0.1131,Cr: 0.3333; Si: 0.6667
mp-559091,SiO2,"O, Si",2,0.011257474722222938,Hexagonal,182,P6_322,5.4496,False,False,0.7260,Si: 0.3333; O: 0.6667
mp-10851,SiO2,"O, Si",2,0.009073353333333145,Hexagonal,181,P6_422,5.5428,False,False,0.7260,Si: 0.3333; O: 0.6667
mp-11191,CrSi2,"Cr, Si",2,0.021367938888888105,Hexagonal,181,P6_422,0.3638999999999992,False,False,0.1131,Cr: 0.3333; Si: 0.6667
mp-334,LaF3,"F, La",2,0.000900947916667505,Hexagonal,185,P6_3cm,6.0452,False,False,1.2471,La: 0.2500; F: 0.7500
mp-1193977,Lu2S3,"Lu, S",2,0.03857061966666819,Hexagonal,185,P6_3cm,2.4062,False,False,0.6418,Lu: 0.4000; S: 0.6000
mp-1200923,Ni5P2,"Ni, P",2,0.01675999452380772,Hexagonal,185,P6_3cm,0.01130000000000031,False,False,0.1265,Ni: 0.7143; P: 0.2857
mp-655,Na3As,"As, Na",2,0.0,Hexagonal,185,P6_3cm,0.06400000000000006,False,False,0.5413,Na: 0.7500; As: 0.2500
mp-1193566,Tm2S3,"S, Tm",2,0.05271652025000151,Hexagonal,185,P6_3cm,2.4261000000000004,False,False,0.6516,Tm: 0.4000; S: 0.6000
mp-18511,NdF3,"F, Nd",2,0.0014849800000007463,Hexagonal,185,P6_3cm,7.8031,False,False,1.2298,Nd: 0.2500; F: 0.7500
mp-18299,UF3,"F, U",2,0.0,Hexagonal,185,P6_3cm,0.21550000000000047,False,False,1.1258,U: 0.2500; F: 0.7500
mp-703459,H2O,"H, O",2,0.0010832130555558095,Hexagonal,185,P6_3cm,5.5287,False,False,0.5845,H: 0.6667; O: 0.3333
mp-569994,CdI2,"Cd, I",2,0.00013067611110928468,Hexagonal,186,P6_3mc,2.3621,False,False,0.4573,Cd: 0.3333; I: 0.6667
mp-7140,SiC,"C, Si",2,0.004145862368421405,Hexagonal,186,P6_3mc,2.3028999999999993,False,False,0.3250,Si: 0.5000; C: 0.5000
mp-1070,CdSe,"Cd, Se",2,0.0,Hexagonal,186,P6_3mc,0.5724,False,False,0.4300,Cd: 0.5000; Se: 0.5000
mp-672,CdS,"Cd, S",2,0.0,Hexagonal,186,P6_3mc,1.125,False,False,0.4450,Cd: 0.5000; S: 0.5000
mp-2653,BN,"B, N",2,0.09470411999999939,Hexagonal,186,P6_3mc,5.1975999999999996,False,False,0.5000,B: 0.5000; N: 0.5000
mp-568263,GaSe,"Ga, Se",2,0.0,Hexagonal,186,P6_3mc,1.2121,False,False,0.3700,Ga: 0.5000; Se: 0.5000
mp-560588,ZnS,"S, Zn",2,0.003044368214284887,Hexagonal,186,P6_3mc,2.0701,False,False,0.4650,Zn: 0.5000; S: 0.5000
mp-561118,ZnS,"S, Zn",2,0.0005387500892855002,Hexagonal,186,P6_3mc,2.0338,False,False,0.4650,Zn: 0.5000; S: 0.5000
mp-1008559,BP,"B, P",2,0.014076364999999313,Hexagonal,186,P6_3mc,1.0624000000000002,False,False,0.0750,B: 0.5000; P: 0.5000
mp-569346,CuI,"Cu, I",2,0.008882400000000956,Hexagonal,186,P6_3mc,1.2119999999999997,False,False,0.3800,Cu: 0.5000; I: 0.5000
mp-2133,ZnO,"O, Zn",2,0.0,Hexagonal,186,P6_3mc,0.7227,False,False,0.8950,Zn: 0.5000; O: 0.5000
mp-567542,PbI2,"I, Pb",2,0.0007863558333318643,Hexagonal,186,P6_3mc,2.3829000000000002,False,False,0.1556,Pb: 0.3333; I: 0.6667
mp-561196,ZnS,"S, Zn",2,0.00023491928571317544,Hexagonal,186,P6_3mc,2.0271,False,False,0.4650,Zn: 0.5000; S: 0.5000
mp-28248,CdI2,"Cd, I",2,0.0001492961111102531,Hexagonal,186,P6_3mc,2.3655999999999997,False,False,0.4573,Cd: 0.3333; I: 0.6667
mp-560725,ZnS,"S, Zn",2,0.00017364540178554932,Hexagonal,186,P6_3mc,2.0215,False,False,0.4650,Zn: 0.5000; S: 0.5000
mp-580941,AgI,"Ag, I",2,0.0,Hexagonal,186,P6_3mc,1.3759000000000001,False,False,0.3650,Ag: 0.5000; I: 0.5000
mp-567551,SiC,"C, Si",2,5.227018092135438e-05,Hexagonal,186,P6_3mc,1.970600000000001,False,False,0.3250,Si: 0.5000; C: 0.5000
mp-7631,SiC,"C, Si",2,7.649035088874712e-06,Hexagonal,186,P6_3mc,2.0229999999999997,False,False,0.3250,Si: 0.5000; C: 0.5000
mp-2542,BeO,"Be, O",2,0.0,Hexagonal,186,P6_3mc,7.463900000000001,False,False,0.9350,Be: 0.5000; O: 0.5000
mp-9984,SnS2,"S, Sn",2,0.00030166500000028407,Hexagonal,186,P6_3mc,1.4856999999999996,False,False,0.2923,Sn: 0.3333; S: 0.6667
mp-19128,CoO,"Co, O",2,0.0004125800000007729,Hexagonal,186,P6_3mc,0.7120000000000002,False,False,0.7800,Co: 0.5000; O: 0.5000
mp-1039,MgTe,"Mg, Te",2,2.360250000066344e-05,Hexagonal,186,P6_3mc,2.3611999999999997,False,False,0.3950,Mg: 0.5000; Te: 0.5000
mp-567503,PbI2,"I, Pb",2,0.0,Hexagonal,186,P6_3mc,2.4455,False,False,0.1556,Pb: 0.3333; I: 0.6667
mp-1188316,Bi2O3,"Bi, O",2,0.05082789699999957,Hexagonal,186,P6_3mc,1.4737,False,False,0.6957,Bi: 0.4000; O: 0.6000
mp-561286,ZnS,"S, Zn",2,0.00011004546428594608,Hexagonal,186,P6_3mc,2.0218000000000003,False,False,0.4650,Zn: 0.5000; S: 0.5000
mp-380,ZnSe,"Se, Zn",2,0.004020032499999715,Hexagonal,186,P6_3mc,1.2004,False,False,0.4500,Zn: 0.5000; Se: 0.5000
mp-1018040,MgSe,"Mg, Se",2,0.0,Hexagonal,186,P6_3mc,2.5765,False,False,0.6200,Mg: 0.5000; Se: 0.5000
mp-7868,PtO2,"O, Pt",2,0.05597976166666996,Hexagonal,186,P6_3mc,1.5362,False,False,0.5468,Pt: 0.3333; O: 0.6667
mp-12779,CdTe,"Cd, Te",2,0.002613155000002365,Hexagonal,186,P6_3mc,0.6185999999999998,False,False,0.2050,Cd: 0.5000; Te: 0.5000
mp-570054,CdI2,"Cd, I",2,0.0002671456944431938,Hexagonal,186,P6_3mc,2.3541,False,False,0.4573,Cd: 0.3333; I: 0.6667
mp-22894,AgI,"Ag, I",2,0.0026138749999979893,Hexagonal,186,P6_3mc,1.3877000000000002,False,False,0.3650,Ag: 0.5000; I: 0.5000
mp-661,AlN,"Al, N",2,0.0,Hexagonal,186,P6_3mc,4.0467,False,False,0.7150,Al: 0.5000; N: 0.5000
mp-27934,CdBr2,"Br, Cd",2,0.0003028083333340703,Hexagonal,186,P6_3mc,2.9381,False,False,0.5987,Cd: 0.3333; Br: 0.6667
mp-10281,ZnS,"S, Zn",2,0.0011312769642852771,Hexagonal,186,P6_3mc,2.0471,False,False,0.4650,Zn: 0.5000; S: 0.5000
mp-804,GaN,"Ga, N",2,0.0,Hexagonal,186,P6_3mc,1.7264999999999997,False,False,0.6150,Ga: 0.5000; N: 0.5000
mp-570089,CdI2,"Cd, I",2,0.00033981555555495646,Hexagonal,186,P6_3mc,2.3952999999999998,False,False,0.4573,Cd: 0.3333; I: 0.6667
mp-570935,LiI,"I, Li",2,0.0,Hexagonal,186,P6_3mc,4.3818,False,False,0.8400,Li: 0.5000; I: 0.5000
mp-561258,ZnS,"S, Zn",2,0.00034584121428515857,Hexagonal,186,P6_3mc,2.0288,False,False,0.4650,Zn: 0.5000; S: 0.5000
mp-567505,SiC,"C, Si",2,6.303174342114914e-05,Hexagonal,186,P6_3mc,1.7772000000000006,False,False,0.3250,Si: 0.5000; C: 0.5000
mp-9946,ZnS,"S, Zn",2,0.000675115714285468,Hexagonal,186,P6_3mc,2.0368,False,False,0.4650,Zn: 0.5000; S: 0.5000
mp-2340,Na2O2,"Na, O",2,0.0,Hexagonal,189,P-62m,1.7361,False,False,1.2550,Na: 0.5000; O: 0.5000
mp-1049,SrAs,"As, Sr",2,0.0,Hexagonal,189,P-62m,0.018100000000000005,False,False,0.6150,Sr: 0.5000; As: 0.5000
mp-9268,KSe,"K, Se",2,0.0,Hexagonal,189,P-62m,0.7039,False,False,0.8650,K: 0.5000; Se: 0.5000
mp-7931,SrP,"P, Sr",2,0.0,Hexagonal,189,P-62m,0.45940000000000003,False,False,0.6200,Sr: 0.5000; P: 0.5000
mp-567680,BaCl2,"Ba, Cl",2,0.009529673333332767,Hexagonal,189,P-62m,4.5724,False,False,1.0701,Ba: 0.3333; Cl: 0.6667
mp-409,NaS,"Na, S",2,0.002286554999999524,Hexagonal,189,P-62m,0.8685,False,False,0.8250,Na: 0.5000; S: 0.5000
mp-1287,KS,"K, S",2,0.0,Hexagonal,189,P-62m,1.469,False,False,0.8800,K: 0.5000; S: 0.5000
mp-9063,RbSe,"Rb, Se",2,0.0,Hexagonal,189,P-62m,0.9245,False,False,0.8650,Rb: 0.5000; Se: 0.5000
mp-1554,KTe,"K, Te",2,0.003519712083331683,Hexagonal,189,P-62m,0.21319999999999983,False,False,0.6400,K: 0.5000; Te: 0.5000
mp-568536,BaI2,"Ba, I",2,0.0032400819444466933,Hexagonal,189,P-62m,3.0488,False,False,0.8344,Ba: 0.3333; I: 0.6667
mp-9062,RbS,"Rb, S",2,0.0,Hexagonal,189,P-62m,1.5781,False,False,0.8800,Rb: 0.5000; S: 0.5000
mp-9064,RbTe,"Rb, Te",2,0.0004073541666649305,Hexagonal,189,P-62m,0.4374,False,False,0.6400,Rb: 0.5000; Te: 0.5000
mp-1345,CaP,"Ca, P",2,0.0,Hexagonal,189,P-62m,0.3443000000000005,False,False,0.5950,Ca: 0.5000; P: 0.5000
mp-1201887,SiO2,"O, Si",2,0.012486380694443966,Hexagonal,192,P6/mcc,5.5322,False,False,0.7260,Si: 0.3333; O: 0.6667
mp-573514,CsSb,"Cs, Sb",2,0.0,Orthorhombic,19,P2_12_12_1,0.5557999999999996,False,False,0.6300,Cs: 0.5000; Sb: 0.5000
mp-1193140,Cs2S5,"Cs, S",2,0.0,Orthorhombic,19,P2_12_12_1,1.8661999999999999,False,False,0.8086,Cs: 0.2857; S: 0.7143
mp-1181222,GeH4,"Ge, H",2,0.0,Orthorhombic,19,P2_12_12_1,5.9261,False,False,0.0760,Ge: 0.2000; H: 0.8000
mp-542814,SiO2,"O, Si",2,0.0074840363888899475,Orthorhombic,19,P2_12_12_1,5.5103,False,False,0.7260,Si: 0.3333; O: 0.6667
mp-7456,SnF2,"F, Sn",2,0.005286595416666984,Orthorhombic,19,P2_12_12_1,3.2628999999999997,False,False,0.9522,Sn: 0.3333; F: 0.6667
mp-7444,RbSb,"Rb, Sb",2,0.0010182756250003422,Orthorhombic,19,P2_12_12_1,0.5423,False,False,0.6150,Rb: 0.5000; Sb: 0.5000
mp-21858,UO3,"O, U",2,0.08297791937500065,Orthorhombic,19,P2_12_12_1,1.9038,False,False,0.8920,U: 0.2500; O: 0.7500
mp-561224,TeO2,"O, Te",2,0.0008392999999973227,Orthorhombic,19,P2_12_12_1,2.8518999999999997,False,False,0.6317,Te: 0.3333; O: 0.6667
mp-27820,B7H10,"B, H",2,0.031991528021389826,Orthorhombic,19,P2_12_12_1,2.5117,False,False,0.0787,B: 0.4118; H: 0.5882
mp-23317,AsBr3,"As, Br",2,0.0,Orthorhombic,19,P2_12_12_1,3.1271000000000004,False,False,0.3377,As: 0.2500; Br: 0.7500
mp-23280,AsCl3,"As, Cl",2,0.0,Orthorhombic,19,P2_12_12_1,3.9873,False,False,0.4244,As: 0.2500; Cl: 0.7500
mp-8377,TeO2,"O, Te",2,0.0,Orthorhombic,19,P2_12_12_1,3.0604,False,False,0.6317,Te: 0.3333; O: 0.6667
mp-7595,GeF2,"F, Ge",2,0.00635599541666565,Orthorhombic,19,P2_12_12_1,4.0597,False,False,0.9287,Ge: 0.3333; F: 0.6667
mp-16911,Rb2S5,"Rb, S",2,0.0,Orthorhombic,19,P2_12_12_1,1.9539000000000002,False,False,0.7951,Rb: 0.2857; S: 0.7143
mp-29172,SeF4,"F, Se",2,0.0,Orthorhombic,19,P2_12_12_1,4.1424,False,False,0.5720,Se: 0.2000; F: 0.8000
mp-643432,H3N,"H, N",2,0.0037674268750000905,Orthorhombic,19,P2_12_12_1,4.4529,False,False,0.3637,H: 0.7500; N: 0.2500
mp-7441,KP,"K, P",2,0.0,Orthorhombic,19,P2_12_12_1,1.0349999999999997,False,False,0.6850,K: 0.5000; P: 0.5000
mp-1788,As2O5,"As, O",2,0.0,Orthorhombic,19,P2_12_12_1,1.426,False,False,0.5692,As: 0.2857; O: 0.7143
mp-620372,Rb2Se5,"Rb, Se",2,0.0,Orthorhombic,19,P2_12_12_1,0.8362,False,False,0.7815,Rb: 0.2857; Se: 0.7143
mp-30520,Tl2S5,"S, Tl",2,0.0,Orthorhombic,19,P2_12_12_1,1.6678999999999995,False,False,0.4337,Tl: 0.2857; S: 0.7143
mp-541055,Cs2Se5,"Cs, Se",2,0.0,Orthorhombic,19,P2_12_12_1,0.9618,False,False,0.7951,Cs: 0.2857; Se: 0.7143
mp-17146,K2S5,"K, S",2,0.0,Orthorhombic,19,P2_12_12_1,1.9298999999999997,False,False,0.7951,K: 0.2857; S: 0.7143
mp-713,KAs,"As, K",2,0.0,Orthorhombic,19,P2_12_12_1,0.6695,False,False,0.6800,K: 0.5000; As: 0.5000
mp-1203812,SF4,"F, S",2,0.02667429809027766,Orthorhombic,19,P2_12_12_1,4.9033999999999995,False,False,0.5600,S: 0.2000; F: 0.8000
mp-1202960,Sb2O3,"O, Sb",2,0.03248689499999813,Orthorhombic,19,P2_12_12_1,2.3542999999999994,False,False,0.6810,Sb: 0.4000; O: 0.6000
mp-1188662,NaAs,"As, Na",2,0.0040716237499989205,Orthorhombic,19,P2_12_12_1,0.5472000000000001,False,False,0.6250,Na: 0.5000; As: 0.5000
mp-561664,TeF4,"F, Te",2,0.0,Orthorhombic,19,P2_12_12_1,4.0186,False,False,0.7520,Te: 0.2000; F: 0.8000
mp-28128,SCl2,"Cl, S",2,0.053359090729166336,Orthorhombic,19,P2_12_12_1,2.093,False,False,0.2734,S: 0.3333; Cl: 0.6667
mp-28336,Li3P7,"Li, P",2,0.0,Orthorhombic,19,P2_12_12_1,1.7927,False,False,0.5545,Li: 0.3000; P: 0.7000
mp-556961,SiO2,"O, Si",2,0.008716009305556938,Orthorhombic,19,P2_12_12_1,5.736,False,False,0.7260,Si: 0.3333; O: 0.6667
mp-7440,NaP,"Na, P",2,0.0,Orthorhombic,19,P2_12_12_1,0.8684000000000003,False,False,0.6300,Na: 0.5000; P: 0.5000
mp-10802,RbAs,"As, Rb",2,0.0,Orthorhombic,19,P2_12_12_1,0.5879000000000001,False,False,0.6800,Rb: 0.5000; As: 0.5000
mp-18609,K2Se5,"K, Se",2,0.0,Orthorhombic,19,P2_12_12_1,0.9322999999999999,False,False,0.7815,K: 0.2857; Se: 0.7143
mp-29174,SiCl2,"Cl, Si",2,0.06096741874999978,Orthorhombic,19,P2_12_12_1,2.0151,False,False,0.5940,Si: 0.3333; Cl: 0.6667
mp-1016092,Re2O7,"O, Re",2,0.0,Orthorhombic,19,P2_12_12_1,2.3646000000000003,False,False,0.6402,Re: 0.2222; O: 0.7778
mp-23256,BCl,"B, Cl",2,0.09947819928819435,Orthorhombic,19,P2_12_12_1,0.9004000000000001,False,False,0.5600,B: 0.5000; Cl: 0.5000
mp-1204057,SiO2,"O, Si",2,0.016936006203703613,Hexagonal,191,P6/mmm,5.5443999999999996,False,False,0.7260,Si: 0.3333; O: 0.6667
mp-8602,SiO2,"O, Si",2,0.010664375196077103,Hexagonal,191,P6/mmm,5.5296,False,False,0.7260,Si: 0.3333; O: 0.6667
mp-2251,Li3N,"Li, N",2,0.0,Hexagonal,191,P6/mmm,0.9840000000000001,False,False,0.8920,Li: 0.7500; N: 0.2500
mp-545665,WO3,"O, W",2,0.01092049864583089,Hexagonal,191,P6/mmm,1.1401,False,False,0.4677,W: 0.2500; O: 0.7500
mp-779689,H3N,"H, N",2,0.021952314375000448,Cubic,198,P2_13,3.7337000000000002,False,False,0.3637,H: 0.7500; N: 0.2500
mp-1025397,GeRu,"Ge, Ru",2,0.006567479791662834,Cubic,198,P2_13,0.12909999999999933,False,False,0.0950,Ge: 0.5000; Ru: 0.5000
mp-189,SiRu,"Ru, Si",2,0.0,Cubic,198,P2_13,0.22989999999999888,False,False,0.1500,Si: 0.5000; Ru: 0.5000
mp-8059,SiO2,"O, Si",2,0.009373027638890363,Cubic,198,P2_13,5.5887,False,False,0.7260,Si: 0.3333; O: 0.6667
mp-871,FeSi,"Fe, Si",2,0.0,Cubic,198,P2_13,0.18020000000000103,False,False,0.0350,Fe: 0.5000; Si: 0.5000
mp-29145,H3N,"H, N",2,0.0,Cubic,198,P2_13,4.3412,False,False,0.3637,H: 0.7500; N: 0.2500
mp-23276,InCl,"Cl, In",2,0.0,Cubic,198,P2_13,2.1862,False,False,0.6900,In: 0.5000; Cl: 0.5000
mp-2488,SiOs,"Os, Si",2,0.0,Cubic,198,P2_13,0.5122,False,False,0.1500,Si: 0.5000; Os: 0.5000
mp-1572,GaSe,"Ga, Se",2,0.00028121875000053365,Hexagonal,187,P-6m2,1.2405999999999997,False,False,0.3700,Ga: 0.5000; Se: 0.5000
mp-1079260,InSe,"In, Se",2,0.0017968525000000568,Hexagonal,187,P-6m2,0.6560999999999999,False,False,0.3850,In: 0.5000; Se: 0.5000
mp-568328,FeP4,"Fe, P",2,0.028198729499998798,Orthorhombic,20,C222_1,0.8292999999999999,False,False,0.1440,Fe: 0.2000; P: 0.8000
mp-7648,SiO2,"O, Si",2,0.012010786388890082,Orthorhombic,20,C222_1,5.7192,False,False,0.7260,Si: 0.3333; O: 0.6667
mp-634812,H2O,"H, O",2,0.06796082916666624,Orthorhombic,20,C222_1,5.3276,False,False,0.5845,H: 0.6667; O: 0.3333
mp-2789,NO2,"N, O",2,0.0,Cubic,204,Im-3,2.8265,False,False,0.1886,N: 0.3333; O: 0.6667
mp-13853,P3Ir,"Ir, P",2,0.0,Cubic,204,Im-3,0.08490000000000109,False,False,0.0043,P: 0.7500; Ir: 0.2500
mp-557865,NO2,"N, O",2,0.02684258499999892,Cubic,204,Im-3,2.781,False,False,0.1886,N: 0.3333; O: 0.6667
mp-1239,Sb3Ir,"Ir, Sb",2,0.0,Cubic,204,Im-3,0.05369999999999919,False,False,0.0650,Sb: 0.7500; Ir: 0.2500