material_id,formula,elements,num_elements,energy_above_hull,crystal_system,spacegroup_number,spacegroup_symbol,band_gap,theoretical,is_metal,electronegativity_difference
mp-1104495,La3Rh2,"La, Rh",2,0.006688662777777132,Trigonal,148,R-3,0.0,False,True,0.5780795792968298
mp-1104388,Y3Pd2,"Pd, Y",2,0.012317507583336607,Trigonal,148,R-3,0.0,False,True,0.480099989585503
mp-12712,Zr3Pd4,"Pd, Zr",2,0.00891687785714268,Trigonal,148,R-3,0.0,False,True,0.4305383435956924
mp-567653,Ti3Ni4,"Ni, Ti",2,0.007696926964285922,Trigonal,148,R-3,0.0,False,True,0.18310251394299554
mp-30357,Sr3Ag2,"Ag, Sr",2,0.003260875199998736,Trigonal,148,R-3,0.0,False,True,0.4800999895855029
mp-17659,Mg23Al30,"Al, Mg",2,0.0007062855660371348,Trigonal,148,R-3,0.0,False,True,0.14868594947053243
mp-2426125,Mg9Sn5,"Mg, Sn",2,0.002168677321428003,Trigonal,148,R-3,0.0,True,True,0.31145232543747065
mp-21965,V8Ga41,"Ga, V",2,0.0,Trigonal,148,R-3,0.008599999999999497,False,False,0.06652936019856066
mp-30421,Sr3Au2,"Au, Sr",2,0.0,Trigonal,148,R-3,0.0,False,True,0.7789377382050506
mp-1104303,La3Ir2,"Ir, La",2,0.0,Trigonal,148,R-3,0.0,False,True,0.5388877434122993
mp-1104856,La3Pt4,"La, Pt",2,0.0,Trigonal,148,R-3,0.0,False,True,0.5839485579803642
mp-1218673,Sr4Zn51,"Sr, Zn",2,0.006455226136363734,Trigonal,148,R-3,0.0,True,True,0.18178181454472708
mp-1227465,Ca4Zn51,"Ca, Zn",2,0.0,Trigonal,148,R-3,0.0,True,True,0.1687973992201037
mp-1104019,Y3Pd4,"Pd, Y",2,0.0,Trigonal,148,R-3,0.0,False,True,0.4849742261192857
mp-12699,Ca3Au4,"Au, Ca",2,0.0,Trigonal,148,R-3,0.0,False,True,0.762102355330306
mp-1199295,Cd41Ir8,"Cd, Ir",2,0.0,Trigonal,148,R-3,0.0,False,True,0.1884998538959218
mp-1104074,Sr3Pt2,"Pt, Sr",2,0.0,Trigonal,148,R-3,0.0,True,True,0.6515642715803253
mp-12612,Ba3Ag2,"Ag, Ba",2,0.0,Trigonal,148,R-3,0.0,False,True,0.509493866498901
mp-669546,AlPd,"Al, Pd",2,0.007942607692307035,Trigonal,148,R-3,0.0,False,True,0.29500000000000004
mp-1195805,Ga41Mo8,"Ga, Mo",2,0.0026373337614353787,Trigonal,148,R-3,0.0,True,True,0.12936264483053456
mp-1104753,La3Pt2,"La, Pt",2,0.005386151416658436,Trigonal,148,R-3,0.0,False,True,0.5780795792968298
mp-1104435,La3Pd4,"La, Pd",2,0.0,Trigonal,148,R-3,0.0,False,True,0.5443588252359328
mp-1104164,Ba3Au2,"Au, Ba",2,0.0,Trigonal,148,R-3,0.0,False,True,0.8083316151184488
mp-1104661,Ca3Pd2,"Ca, Pd",2,0.0,Trigonal,148,R-3,0.0,False,True,0.5878775382679629
mp-984698,Ca3Pt2,"Ca, Pt",2,0.0,Trigonal,148,R-3,0.0,True,True,0.6270693741524935
mp-1094404,YMg2,"Mg, Y",2,0.09474609500000009,Monoclinic,15,C2/c,0.0,True,True,0.04242640687119289
mp-1206573,K3Bi2,"Bi, K",2,0.025612190958336445,Monoclinic,15,C2/c,0.0,True,True,0.5878775382679627
mp-1039058,MgBi2,"Bi, Mg",2,0.0942080833333323,Monoclinic,15,C2/c,0.0,True,True,0.3346972097616324
mp-1104417,La5Ru2,"La, Ru",2,0.0,Monoclinic,15,C2/c,0.0,False,True,0.4969293465978882
mp-574498,Cs3Bi2,"Bi, Cs",2,0.00637911112499534,Monoclinic,15,C2/c,0.0,False,True,0.6025744767246618
mp-1094461,MgZn2,"Mg, Zn",2,0.09210977499999884,Monoclinic,15,C2/c,0.0,True,True,0.1602775370689507
mp-1207251,Rb3Bi2,"Bi, Rb",2,0.027854970687497094,Monoclinic,15,C2/c,0.0,True,True,0.5878775382679627
mp-1233,Cu6Sn5,"Cu, Sn",2,0.02306576090908763,Monoclinic,15,C2/c,0.0,False,True,0.029875775863918177
mp-1094985,Mg2Cd,"Cd, Mg",2,0.027555370277777325,Monoclinic,15,C2/c,0.0,True,True,0.179133717900592
mp-1104365,Y5Ir2,"Ir, Y",2,0.0,Monoclinic,15,C2/c,0.0,False,True,0.44271887242357316
mp-1185842,MgAg2,"Ag, Mg",2,0.017728477500000395,Monoclinic,15,C2/c,0.0,True,True,0.2922708028904396
mp-1104669,Ca5Pd2,"Ca, Pd",2,0.0,Monoclinic,15,C2/c,0.0,False,True,0.5421047417431508
mp-1104396,La5Ir2,"Ir, La",2,0.0,Monoclinic,15,C2/c,0.0,False,True,0.4969293465978882
mp-1094570,LiMg2,"Li, Mg",2,0.03159091833333383,Monoclinic,15,C2/c,0.0,True,True,0.1555634918610405
mp-30367,Ca5Au2,"Au, Ca",2,0.0,Monoclinic,15,C2/c,0.0,False,True,0.6957010852370434
mp-1104898,Y5Ru2,"Ru, Y",2,0.0,Monoclinic,15,C2/c,0.0,False,True,0.44271887242357316
mp-1094682,MgGa2,"Ga, Mg",2,0.04408012500000025,Monoclinic,15,C2/c,0.0,True,True,0.23570226039551584
mp-1103570,Ca5Pt2,"Ca, Pt",2,0.0,Monoclinic,15,C2/c,0.0,False,True,0.5782450578593606
mp-1094607,Li2Mg,"Li, Mg",2,0.010512659444444239,Monoclinic,15,C2/c,0.0,True,True,0.1555634918610405
mp-570651,Al17Mo4,"Al, Mo",2,0.002946303214287127,Monoclinic,15,C2/c,0.0,True,True,0.21597219943711557
mp-1185886,MgHg2,"Hg, Mg",2,0.02546004749999764,Monoclinic,15,C2/c,0.0,True,True,0.3252691193458118
mp-30826,Pd13Pb9,"Pb, Pd",2,0.019548053380688657,Monoclinic,15,C2/c,0.0,False,True,0.06391659079231612
mp-1094468,Mg2Zn,"Mg, Zn",2,0.06750086986666681,Monoclinic,15,C2/c,0.0,True,True,0.1602775370689507
mp-1094203,La2Mg,"La, Mg",2,0.050540188333333624,Monoclinic,15,C2/c,0.0,True,True,0.09899494936611664
mp-1094694,MgCd2,"Cd, Mg",2,0.03270036722222258,Monoclinic,15,C2/c,0.0,True,True,0.179133717900592
mp-1094634,Mg2Ga,"Ga, Mg",2,0.08648480611111076,Monoclinic,15,C2/c,0.0,True,True,0.23570226039551584
mp-1039390,Ca2Mg,"Ca, Mg",2,0.06404992249999908,Monoclinic,15,C2/c,0.0,True,True,0.14613540144521983
mp-1094233,MgSn2,"Mg, Sn",2,0.060654030833333206,Monoclinic,15,C2/c,0.0,True,True,0.30641293851417056
mp-1185695,MgAu5,"Au, Mg",2,0.022362813888884947,Trigonal,155,R32,0.0,True,True,0.4583939353874569
mp-976969,MgPb5,"Mg, Pb",2,0.045874299999999923,Trigonal,155,R32,0.0,True,True,0.38013155617496425
mp-1094213,MgSn2,"Mg, Sn",2,0.07754418916666683,Trigonal,155,R32,0.0,True,True,0.30641293851417056
mp-973295,Mg5Hg,"Hg, Mg",2,0.03412547083333206,Trigonal,155,R32,0.0,True,True,0.2571478174124758
mp-1094360,Sr5Mg,"Mg, Sr",2,0.08501314916666658,Trigonal,155,R32,0.0,True,True,0.13416407864998742
mp-1038921,Mg5Bi,"Bi, Mg",2,0.08370864541666578,Trigonal,155,R32,0.0,True,True,0.2646013773374751
mp-1094638,MgGa5,"Ga, Mg",2,0.043474660625000716,Trigonal,155,R32,0.0,True,True,0.18633899812498245
mp-1185835,Mg5In,"In, Mg",2,0.04290282833333259,Trigonal,155,R32,0.0,True,True,0.1751586582374835
mp-1185839,MgAg5,"Ag, Mg",2,0.007556401944446289,Trigonal,155,R32,0.0,True,True,0.23106035767497823
mp-1094199,Mg5Sn,"Mg, Sn",2,0.06271033083333366,Trigonal,155,R32,0.0,True,True,0.24224069756247718
mp-1094194,MgZn5,"Mg, Zn",2,0.04761991595237891,Trigonal,155,R32,0.0,True,True,0.12671051872498804
mp-1038785,MgCd2,"Cd, Mg",2,0.03407230277777873,Trigonal,155,R32,0.0,True,True,0.179133717900592
mp-976885,Li2Mg,"Li, Mg",2,0.00762478444444481,Trigonal,155,R32,0.0,True,True,0.1555634918610405
mp-1185832,Mg5Pb,"Mg, Pb",2,0.02853602249999776,Trigonal,155,R32,0.0,True,True,0.38013155617496425
mp-1185807,Mg5Ag,"Ag, Mg",2,0.03297548500000036,Trigonal,155,R32,0.0,True,True,0.23106035767497823
mp-30418,SnAu5,"Au, Sn",2,0.03133991166667016,Trigonal,155,R32,0.0,False,True,0.2161532378249797
mp-1039318,CaMg5,"Ca, Mg",2,0.07902380666666597,Trigonal,155,R32,0.0,True,True,0.11553017883748914
mp-1185699,MgBi5,"Bi, Mg",2,0.09825880499999906,Trigonal,155,R32,0.0,True,True,0.2646013773374751
mp-1185921,MgNi5,"Mg, Ni",2,0.09409609854166678,Trigonal,155,R32,0.0,True,True,0.2236067977499789
mp-1185860,MgCu5,"Cu, Mg",2,0.04876304999999981,Trigonal,155,R32,0.0,True,True,0.21988001778747926
mp-1094605,LiMg2,"Li, Mg",2,0.03300401333333358,Trigonal,155,R32,0.0,True,True,0.1555634918610405
mp-2351903,MgHg5,"Hg, Mg",2,0.04562682333332824,Trigonal,155,R32,0.0,True,True,0.2571478174124758
mp-569103,Mg3Hg,"Hg, Mg",2,0.026876663750001084,Trigonal,155,R32,0.0,False,True,0.2987787643056313
mp-1094405,YMg5,"Mg, Y",2,0.0865322816666656,Trigonal,155,R32,0.0,True,True,0.033541019662496875
mp-1185901,MgIn2,"In, Mg",2,0.024510637962962267,Trigonal,155,R32,0.0,True,True,0.22156012477178486
mp-976976,MgPd5,"Mg, Pd",2,0.0,Trigonal,155,R32,0.0,True,True,0.3316834166624688
mp-1185837,Mg5Sc,"Mg, Sc",2,0.0599288583333335,Trigonal,155,R32,0.0,True,True,0.018633899812498265
mp-1039332,Ca2Mg,"Ca, Mg",2,0.08349362083333278,Trigonal,155,R32,0.0,True,True,0.14613540144521983
mp-1094229,MgSn5,"Mg, Sn",2,0.06853892291666996,Trigonal,155,R32,0.0,True,True,0.24224069756247718
mp-1094201,La2Mg,"La, Mg",2,0.08248644333333432,Trigonal,155,R32,0.0,True,True,0.09899494936611664
mp-1094907,Mg2Cd,"Cd, Mg",2,0.03659621694444537,Trigonal,155,R32,0.0,True,True,0.179133717900592
mp-1094421,Mg2Zn,"Mg, Zn",2,0.09241781653333381,Trigonal,155,R32,0.0,True,True,0.1602775370689507
mp-1094218,La5Mg,"La, Mg",2,0.04946024916666758,Trigonal,155,R32,0.0,True,True,0.07826237921249263
mp-1094425,Mg5Zn,"Mg, Zn",2,0.0622913607666673,Trigonal,155,R32,0.0,True,True,0.12671051872498804
mp-1094796,Mg5Cd,"Cd, Mg",2,0.03517677000000008,Trigonal,155,R32,0.0,True,True,0.14161763857498663
mp-1185813,Mg5Au,"Au, Mg",2,0.08340869944444318,Trigonal,155,R32,0.0,True,True,0.4583939353874569
mp-1094657,Mg5Ga,"Ga, Mg",2,0.05424988166666722,Trigonal,155,R32,0.0,True,True,0.18633899812498247
mp-981935,Li5Mg,"Li, Mg",2,0.0029402947222227915,Trigonal,155,R32,0.0,True,True,0.12298373876248846
mp-1094644,MgGa2,"Ga, Mg",2,0.05512544166666533,Trigonal,155,R32,0.0,True,True,0.23570226039551584
mp-1078313,Bi2Pt,"Bi, Pt",2,0.05044985180554917,Trigonal,157,P31m,0.0,False,True,0.12256517540566814
mp-597,TiNi,"Ni, Ti",2,0.022700761666666125,Trigonal,157,P31m,0.0,True,True,0.18499999999999994
mp-16886,CdAu,"Au, Cd",2,0.0,Trigonal,157,P31m,0.0,False,True,0.42500000000000004
mp-567701,Ba21Al40,"Al, Ba",2,0.0,Trigonal,157,P31m,0.0,False,True,0.3420915166313573
mp-1215783,Zr10Sn7,"Sn, Zr",2,0.005830720882354257,Trigonal,162,P-31m,0.0,True,True,0.31005636277439264
mp-1227597,Be46Ir7,"Be, Ir",2,0.03838145575471685,Trigonal,156,P3m1,0.0,True,True,0.21330086453403038
mp-1215293,ZrMn3,"Mn, Zr",2,0.08738527135057517,Trigonal,156,P3m1,0.0,True,True,0.09526279441628824
mp-1227672,Be46Rh7,"Be, Rh",2,0.06332153358490533,Trigonal,156,P3m1,0.0,True,True,0.24038668860184362
mp-770433,Ag11Hg9,"Ag, Hg",2,0.07860791908333198,Trigonal,156,P3m1,0.0,True,True,0.034824560298731724
mp-1094592,LiMg,"Li, Mg",2,0.040842197499999955,Trigonal,156,P3m1,0.0,True,True,0.16500000000000004
mp-1222489,Li3Ga14,"Ga, Li",2,0.00958796441176446,Trigonal,160,R3m,0.0,True,True,0.3164126340987367
mp-19954,Al8Cr5,"Al, Cr",2,0.08061745315384528,Trigonal,160,R3m,0.0,False,True,0.02432521277052591
mp-1221203,Na3Tl4,"Na, Tl",2,0.02478258964286084,Trigonal,160,R3m,0.0,True,True,0.34146144492072156
mp-1094692,Mg16Al13,"Al, Mg",2,0.007619129568966265,Trigonal,160,R3m,0.0,True,True,0.14919522519161338
mp-1227077,Cd43Pd8,"Cd, Pd",2,0.018259509558824716,Trigonal,160,R3m,0.0,True,True,0.18547236990991414
mp-1222780,LaY,"La, Y",2,0.007874764166665216,Trigonal,160,R3m,0.0,True,True,0.05999999999999994
mp-1227357,Be3Cu,"Be, Cu",2,0.0004129520833338063,Trigonal,160,R3m,0.0,True,True,0.14289419162443232
mp-1194040,Mn5Al8,"Al, Mn",2,0.07759116884615391,Trigonal,160,R3m,0.0,False,True,0.02919025532463122
mp-1217883,Ta13Al23,"Al, Ta",2,0.05228515149629942,Trigonal,160,R3m,0.0,True,True,0.052835494756582384
mp-1222752,LaY,"La, Y",2,0.0597295308333301,Trigonal,160,R3m,0.0,True,True,0.05999999999999994
mp-1216163,Y4Mg25,"Mg, Y",2,0.023279291551723702,Trigonal,160,R3m,0.0,True,True,0.031034482758620717
mp-1227576,Cu81Sn22,"Cu, Sn",2,0.02619956883495078,Trigonal,160,R3m,0.0,True,True,0.02459052922625878
mp-1557,Mg3Au,"Au, Mg",2,0.00043810999999793765,Trigonal,165,P-3c1,0.0,False,True,0.5326056233274298
mp-569570,K8Tl11,"K, Tl",2,0.0,Trigonal,167,R-3c,0.0,False,True,0.39498237977460465
mp-582929,K8In11,"In, K",2,0.0,Trigonal,167,R-3c,0.0,False,True,0.4739788557295256
mp-640712,Rb8In11,"In, Rb",2,0.0,Trigonal,167,R-3c,0.0,False,True,0.4739788557295256
mp-574458,Zr21Re25,"Re, Zr",2,0.0,Trigonal,167,R-3c,0.0,False,True,0.2839204506657422
mp-1203605,Hf21Re25,"Hf, Re",2,0.0,Trigonal,167,R-3c,0.0,False,True,0.2988636322797286
mp-16480,Al3Au8,"Al, Au",2,0.001997207272729895,Trigonal,167,R-3c,0.0,False,True,0.41418644741606464
mp-1202079,Ti21Mn25,"Mn, Ti",2,0.0,Trigonal,167,R-3c,0.0,False,True,0.004981060537995482
mp-541787,Na8Hg3,"Hg, Na",2,0.0,Trigonal,167,R-3c,0.0,False,True,0.4765370954141819
mp-570025,Mg21Zn25,"Mg, Zn",2,0.0,Trigonal,167,R-3c,0.0,False,True,0.1693560582918462
mp-571053,Al5Mo,"Al, Mo",2,0.009455564999999666,Trigonal,167,R-3c,0.0,False,True,0.20497289793748072
mp-542781,Rb8Tl11,"Rb, Tl",2,0.0,Trigonal,167,R-3c,0.0,False,True,0.39498237977460465
mp-16860,Mg13Ir3,"Ir, Mg",2,0.015399822382246686,Trigonal,167,R-3c,0.0,False,True,0.3473780136609109
mp-1200207,Cs8Ga11,"Cs, Ga",2,0.0,Trigonal,167,R-3c,0.0,False,True,0.5036025342126208
mp-1207538,Zn17Co3,"Co, Zn",2,0.01235160124712742,Hexagonal,171,P6_2,0.0,True,True,0.08212642692824276
mp-568495,Cu10Sn3,"Cu, Sn",2,0.02194780346153813,Hexagonal,173,P6_3,0.0,False,True,0.025279502654084615
mp-1094853,LiMg,"Li, Mg",2,0.043383229999999884,Trigonal,164,P-3m1,0.0,True,True,0.16500000000000004
mp-1206431,In2Au3,"Au, In",2,0.08824786000000273,Trigonal,164,P-3m1,0.0,True,True,0.3723224409030431
mp-1094569,Li2Mg,"Li, Mg",2,0.02714026111111112,Trigonal,164,P-3m1,0.0,True,True,0.1555634918610405
mp-31474,Rb2Hg7,"Hg, Rb",2,0.00452349037037425,Trigonal,164,P-3m1,0.0,False,True,0.4905728573770279
mp-569018,Mg3Bi2,"Bi, Mg",2,0.0,Trigonal,164,P-3m1,0.0,False,True,0.3478275434752113
mp-1206713,Al2Zn,"Al, Zn",2,0.02457867833333438,Trigonal,164,P-3m1,0.0,True,True,0.01885618083164118
mp-10905,Al3Pt2,"Al, Pt",2,0.0,Trigonal,164,P-3m1,0.0,False,True,0.3282316255329457
mp-1017579,In2Au3,"Au, In",2,0.0,Trigonal,164,P-3m1,0.0,False,True,0.3723224409030431
mp-1079408,Li5In4,"In, Li",2,0.0,Trigonal,164,P-3m1,0.0,False,True,0.39752319599996266
mp-1057,Al3Ni2,"Al, Ni",2,0.0,Trigonal,164,P-3m1,0.0,False,True,0.1469693845669906
mp-567510,BaSn2,"Ba, Sn",2,0.0,Trigonal,164,P-3m1,0.0,True,True,0.5044028372464039
mp-1062935,LaHg2,"Hg, La",2,0.001377663333336443,Trigonal,164,P-3m1,0.0,False,True,0.42426406871192845
mp-1224793,FePd2,"Fe, Pd",2,0.05072774555555526,Trigonal,164,P-3m1,0.0,True,True,0.17441967269268177
mp-1221162,Nb19Fe20,"Fe, Nb",2,0.0019161841222867793,Trigonal,164,P-3m1,0.0,True,True,0.11496218970800315
mp-569581,Bi2Pt,"Bi, Pt",2,0.05002900180554981,Trigonal,164,P-3m1,0.0,True,True,0.12256517540566814
mp-1069815,In3Pt2,"In, Pt",2,0.00039437725000368573,Trigonal,164,P-3m1,0.0,False,True,0.24494897427831772
mp-1297,Tl9Pd13,"Pd, Tl",2,0.0,Trigonal,164,P-3m1,0.0,False,True,0.28516632815033377
mp-1025044,AlNi2,"Al, Ni",2,0.027575857500000467,Trigonal,164,P-3m1,0.0,True,True,0.14142135623730942
mp-1207227,Mg2Bi3,"Bi, Mg",2,0.06914737599999876,Trigonal,164,P-3m1,0.0,True,True,0.3478275434752113
mp-1217189,Ti5Mn7,"Mn, Ti",2,0.019532749019608886,Trigonal,164,P-3m1,0.0,True,True,0.004930066485916352
mp-1226439,Co2Pd,"Co, Pd",2,0.07620323000000084,Trigonal,164,P-3m1,0.0,True,True,0.15084944665313027
mp-1952,Ba7Al13,"Al, Ba",2,0.024810519750002147,Trigonal,164,P-3m1,0.0,False,True,0.3434181125101005
mp-569708,TiPt3,"Pt, Ti",2,0.0,Trigonal,164,P-3m1,0.0,True,True,0.3204293994002422
mp-1215431,ZnCo2,"Co, Zn",2,0.058917223030301,Trigonal,164,P-3m1,0.0,True,True,0.10842303978193728
mp-1018125,Ti2Re,"Re, Ti",2,0.0,Trigonal,164,P-3m1,0.0,True,True,0.16970562748477133
mp-510437,In3Pd2,"In, Pd",2,0.0,Trigonal,164,P-3m1,0.0,False,True,0.20575713839378704
mp-1224697,Fe2Ni,"Fe, Ni",2,0.08932948666666718,Trigonal,164,P-3m1,0.0,True,True,0.037712361663282463
mp-11397,Ga3Ni2,"Ga, Ni",2,0.0,Trigonal,164,P-3m1,0.0,False,True,0.048989794855663495
mp-21385,In3Ni2,"In, Ni",2,0.0,Trigonal,164,P-3m1,0.0,False,True,0.06368673331236258
mp-1220660,NbCo3,"Co, Nb",2,0.07618887000000019,Trigonal,164,P-3m1,0.0,True,True,0.12124355652982133
mp-31473,K2Hg7,"Hg, K",2,0.0,Trigonal,164,P-3m1,0.0,False,True,0.4905728573770279
mp-10901,Al3Pd2,"Al, Pd",2,0.0,Trigonal,164,P-3m1,0.0,False,True,0.2890397896484151
mp-30761,Li7Pb2,"Li, Pb",2,0.0,Trigonal,164,P-3m1,0.0,False,True,0.5612486080160912
mp-1205930,Li5Ga4,"Ga, Li",2,0.0,Trigonal,164,P-3m1,0.0,True,True,0.41243031584996126
mp-21400,Ga3Pt2,"Ga, Pt",2,0.003775965500002698,Trigonal,164,P-3m1,0.0,False,True,0.23025203582161863
mp-1215401,ZnCu2,"Cu, Zn",2,0.027615473333333806,Trigonal,164,P-3m1,0.0,True,True,0.11785113019775792
mp-10886,Al3Cu2,"Al, Cu",2,0.029272975999999673,Trigonal,164,P-3m1,0.0,False,True,0.14207040508142424
mp-1229093,Ag2Hg,"Ag, Hg",2,0.05466904416666907,Trigonal,164,P-3m1,0.0,True,True,0.03299831645537225
mp-1222013,MgAl2,"Al, Mg",2,0.06252564750000067,Trigonal,164,P-3m1,0.0,True,True,0.14142135623730953
mp-30769,Li13Sn5,"Li, Sn",2,0.0033475494444448195,Trigonal,164,P-3m1,0.0,False,True,0.4389451440740321
mp-1094559,LiMg2,"Li, Mg",2,0.046558658333333724,Trigonal,164,P-3m1,0.0,True,True,0.1555634918610405
mp-12283,Li5Tl2,"Li, Tl",2,0.0,Trigonal,166,R-3m,0.0,False,True,0.28912252892968043
mp-1225742,CuAu4,"Au, Cu",2,0.03221613199999984,Trigonal,166,R-3m,0.0,True,True,0.25600000000000006
mp-1194918,Bi4Ir,"Bi, Ir",2,0.0,Trigonal,166,R-3m,0.0,False,True,0.07200000000000006
mp-1220039,OsPt4,"Os, Pt",2,0.021775896000008288,Trigonal,166,R-3m,0.0,True,True,0.03199999999999985
mp-1224976,FeNi,"Fe, Ni",2,0.06864735499999952,Trigonal,166,R-3m,0.0,True,True,0.039999999999999925
mp-1226026,CoRh,"Co, Rh",2,0.08239013749999913,Trigonal,166,R-3m,0.0,True,True,0.19999999999999996
mp-1219940,Pd4W,"Pd, W",2,0.0069308079999998995,Trigonal,166,R-3m,0.0,True,True,0.06399999999999988
mp-1222127,Mg4Sc,"Mg, Sc",2,0.06525975500000003,Trigonal,166,R-3m,0.0,True,True,0.020000000000000018
mp-1102848,LaIr3,"Ir, La",2,0.008618540000007613,Trigonal,166,R-3m,0.0,False,True,0.47631397208144133
mp-1228947,AlAg4,"Ag, Al",2,0.07357737826666977,Trigonal,166,R-3m,0.0,True,True,0.12799999999999992
mp-1223819,InAg4,"Ag, In",2,0.09995672866666538,Trigonal,166,R-3m,0.0,True,True,0.05999999999999997
mp-1104033,Nb6Cr7,"Cr, Nb",2,0.0368280615384613,Trigonal,166,R-3m,0.0,True,True,0.0299111109157285
mp-1225078,FeNi3,"Fe, Ni",2,0.07870095999999993,Trigonal,166,R-3m,0.0,True,True,0.034641016151377484
mp-1227650,BaSr4,"Ba, Sr",2,0.0,Trigonal,166,R-3m,0.0,True,True,0.023999999999999976
mp-30766,Li5Sn2,"Li, Sn",2,0.0,Trigonal,166,R-3m,0.0,False,True,0.4427188724235731
mp-1216575,Tl4Bi,"Bi, Tl",2,0.02859189433333409,Trigonal,166,R-3m,0.0,True,True,0.15999999999999998
mp-1220054,NiRh,"Ni, Rh",2,0.09386531999999903,Trigonal,166,R-3m,0.0,True,True,0.18499999999999994
mp-1224108,HgPb4,"Hg, Pb",2,0.023017000499997664,Trigonal,166,R-3m,0.0,True,True,0.13200000000000003
mp-1813,Ba2Mg17,"Ba, Mg",2,0.0,Trigonal,166,R-3m,0.0,False,True,0.12889472609658034
mp-7285,HfNi3,"Hf, Ni",2,0.002178646916664917,Trigonal,166,R-3m,0.0,False,True,0.2641377481542537
mp-569594,Fe7Mo6,"Fe, Mo",2,0.00687256875739628,Trigonal,166,R-3m,0.0,False,True,0.16451111003650726
mp-1061732,MgZr2,"Mg, Zr",2,0.04071996166666736,Trigonal,166,R-3m,0.0,False,True,0.009428090415820642
mp-1460,RbGa7,"Ga, Rb",2,0.0,Trigonal,166,R-3m,0.0,False,True,0.3274117247442431
mp-1094418,YMg2,"Mg, Y",2,0.010633956666666666,Trigonal,166,R-3m,0.0,True,True,0.04242640687119289
mp-11273,Be3Nb,"Be, Nb",2,0.0,Trigonal,166,R-3m,0.0,False,True,0.012990381056766592
mp-1219925,PdRh,"Pd, Rh",2,0.09264933000000042,Trigonal,166,R-3m,0.0,True,True,0.039999999999999813
mp-17639,Y2Zn17,"Y, Zn",2,0.0,Trigonal,166,R-3m,0.0,False,True,0.13196364814649889
mp-1216296,VPd4,"Pd, V",2,0.055600324000000256,Trigonal,166,R-3m,0.0,True,True,0.22800000000000012
mp-1105643,Hf2Be17,"Be, Hf",2,0.0019026751754385174,Trigonal,166,R-3m,0.0,False,True,0.08286089534780164
mp-1225704,CuRh,"Cu, Rh",2,0.06490085000000079,Trigonal,166,R-3m,0.0,True,True,0.18999999999999995
mp-1216560,Tl4Sn,"Sn, Tl",2,0.045918155999999044,Trigonal,166,R-3m,0.0,True,True,0.13599999999999995
mp-1077925,Na5Sn2,"Na, Sn",2,0.0,Trigonal,166,R-3m,0.0,False,True,0.46530656999620434
mp-7851,TaCo3,"Co, Ta",2,0.022571235833334313,Trigonal,166,R-3m,0.0,False,True,0.1645448267190433
mp-1215579,ZnPd4,"Pd, Zn",2,0.04681220850000134,Trigonal,166,R-3m,0.0,True,True,0.2200000000000001
mp-1105040,Ta6Zn7,"Ta, Zn",2,0.0,Trigonal,166,R-3m,0.0,False,True,0.07477777728932142
mp-1218357,SrCa,"Ca, Sr",2,0.051083300000000165,Trigonal,166,R-3m,0.0,True,True,0.025000000000000022