material_id,formula,elements,num_elements,energy_above_hull,crystal_system,spacegroup_number,spacegroup_symbol,band_gap,theoretical,is_metal,electronegativity_difference
mp-1780,ScRh,"Rh, Sc",2,0.0,Cubic,221,Pm-3m,0.0,False,True,0.45999999999999985
mp-1183304,Ba3Na,"Ba, Na",2,0.05499263104166596,Cubic,221,Pm-3m,0.0,True,True,0.01732050807568879
mp-1941,GaNi,"Ga, Ni",2,0.042973296904763814,Cubic,221,Pm-3m,0.0,False,True,0.04999999999999993
mp-1186094,Na3Zn,"Na, Zn",2,0.09190577780835607,Cubic,221,Pm-3m,0.0,True,True,0.31176914536239786
mp-11290,CaSn3,"Ca, Sn",2,0.0,Cubic,221,Pm-3m,0.0,False,True,0.41569219381653055
mp-20516,InPt3,"In, Pt",2,0.0,Cubic,221,Pm-3m,0.0,False,True,0.21650635094610957
mp-2126,HfIr3,"Hf, Ir",2,0.0,Cubic,221,Pm-3m,0.0,False,True,0.38971143170299744
mp-712,YCu,"Cu, Y",2,0.018895730000000555,Cubic,221,Pm-3m,0.0,False,True,0.33999999999999997
mp-1183162,AlFe3,"Al, Fe",2,0.0,Cubic,221,Pm-3m,0.0,True,True,0.09526279441628824
mp-976254,Li3Mg,"Li, Mg",2,0.015598815416666856,Cubic,221,Pm-3m,0.0,True,True,0.1428941916244324
mp-1187923,Zn3Cr,"Cr, Zn",2,0.09739731250000006,Cubic,221,Pm-3m,0.0,True,True,0.004330127018922198
mp-11500,MnNi,"Mn, Ni",2,0.0,Cubic,221,Pm-3m,0.0,False,True,0.17999999999999994
mp-2696,MgAg,"Ag, Mg",2,0.0,Cubic,221,Pm-3m,0.0,False,True,0.30999999999999994
mp-569125,Mg3In,"In, Mg",2,0.016354179999998664,Cubic,221,Pm-3m,0.0,False,True,0.20351596988934306
mp-1184761,Ir3Os,"Ir, Os",2,0.021401844999999753,Cubic,221,Pm-3m,0.0,True,True,0.0
mp-1002109,VCo,"Co, V",2,0.0,Cubic,221,Pm-3m,0.0,True,True,0.125
mp-998981,TiAl3,"Al, Ti",2,0.023057415000000248,Cubic,221,Pm-3m,0.0,True,True,0.03031088913245538
mp-1206636,SrTl3,"Sr, Tl",2,0.029404816250000465,Cubic,221,Pm-3m,0.0,True,True,0.290118510267787
mp-866022,CdPt3,"Cd, Pt",2,0.007683415000002469,Cubic,221,Pm-3m,0.0,True,True,0.25547749411640935
mp-1185202,KPb3,"K, Pb",2,0.068886191874995,Cubic,221,Pm-3m,0.0,True,True,0.6538491798572513
mp-1948,LaAg,"Ag, La",2,0.0,Cubic,221,Pm-3m,0.0,False,True,0.4149999999999999
mp-21432,LaPb3,"La, Pb",2,0.0,Cubic,221,Pm-3m,0.0,False,True,0.5326056233274298
mp-999543,MnCo3,"Co, Mn",2,0.06809623249999941,Cubic,221,Pm-3m,0.0,True,True,0.14289419162443232
mp-12661,Cd3In,"Cd, In",2,0.04173347250000248,Cubic,221,Pm-3m,0.0,False,True,0.038971143170299774
mp-20971,SnPt3,"Pt, Sn",2,0.0,Cubic,221,Pm-3m,0.0,False,True,0.1385640646055101
mp-1169,ScCu,"Cu, Sc",2,0.0,Cubic,221,Pm-3m,0.0,False,True,0.2699999999999999
mp-20566,MgIn3,"In, Mg",2,0.024540943055557207,Cubic,221,Pm-3m,0.0,False,True,0.20351596988934306
mp-1014219,HfZn,"Hf, Zn",2,0.008220216666664726,Cubic,221,Pm-3m,0.0,True,True,0.17499999999999993
mp-10596,FeIr3,"Fe, Ir",2,0.03003229249999606,Cubic,221,Pm-3m,0.0,False,True,0.1602146997001212
mp-892,ScPt,"Pt, Sc",2,0.0,Cubic,221,Pm-3m,0.0,False,True,0.45999999999999985
mp-1183629,CdBi3,"Bi, Cd",2,0.09777141750000062,Cubic,221,Pm-3m,0.0,True,True,0.1428941916244324
mp-542,SrHg,"Hg, Sr",2,0.0,Cubic,221,Pm-3m,0.0,False,True,0.525
mp-1212609,GaPd,"Ga, Pd",2,0.08591318124999958,Cubic,221,Pm-3m,0.0,True,True,0.1950000000000001
mp-11563,TiRh,"Rh, Ti",2,0.0201166999999991,Cubic,221,Pm-3m,0.0,False,True,0.3699999999999999
mp-1185880,MgHg3,"Hg, Mg",2,0.04419992374999815,Cubic,221,Pm-3m,0.0,True,True,0.2987787643056313
mp-30343,InAg3,"Ag, In",2,0.0,Cubic,221,Pm-3m,0.0,False,True,0.06495190528383286
mp-2103,CuAu3,"Au, Cu",2,0.006434499999997456,Cubic,221,Pm-3m,0.0,False,True,0.2771281292110204
mp-1183624,Cd3Ni,"Cd, Ni",2,0.09107569833333073,Cubic,221,Pm-3m,0.0,True,True,0.09526279441628824
mp-758433,AgHg,"Ag, Hg",2,0.08535895416666506,Cubic,221,Pm-3m,0.0,True,True,0.03500000000000003
mp-1184768,IrRh3,"Ir, Rh",2,0.008113887500002193,Cubic,221,Pm-3m,0.0,True,True,0.034641016151377386
mp-1038814,MgCd,"Cd, Mg",2,0.030768572500001312,Cubic,221,Pm-3m,0.0,True,True,0.18999999999999995
mp-823,TiCo,"Co, Ti",2,0.0,Cubic,221,Pm-3m,0.0,False,True,0.16999999999999993
mp-1186100,NaAg3,"Ag, Na",2,0.07910761708333425,Cubic,221,Pm-3m,0.0,True,True,0.43301270189221924
mp-1187024,Sn3Bi,"Bi, Sn",2,0.08607573875000041,Cubic,221,Pm-3m,0.0,True,True,0.025980762113533184
mp-973191,LiTl3,"Li, Tl",2,0.04103744249999863,Cubic,221,Pm-3m,0.0,True,True,0.2771281292110204
mp-934,LiTl,"Li, Tl",2,0.0,Cubic,221,Pm-3m,0.0,False,True,0.32000000000000006
mp-20539,ScIn3,"In, Sc",2,0.0,Cubic,221,Pm-3m,0.0,False,True,0.1818653347947321
mp-1185790,Mg3Sc,"Mg, Sc",2,0.0,Cubic,221,Pm-3m,0.0,True,True,0.021650635094610987
mp-2283,ZrCo,"Co, Zr",2,0.0,Cubic,221,Pm-3m,0.0,False,True,0.2749999999999999
mp-1186117,NiPt3,"Ni, Pt",2,0.0,Cubic,221,Pm-3m,0.0,True,True,0.1602146997001211
mp-305,TiFe,"Fe, Ti",2,0.0,Cubic,221,Pm-3m,0.0,False,True,0.14500000000000002
mp-985443,Ag3Hg,"Ag, Hg",2,0.03182462187499979,Cubic,221,Pm-3m,0.0,True,True,0.03031088913245538
mp-11571,YSn3,"Sn, Y",2,0.023755627499997267,Cubic,221,Pm-3m,0.0,False,True,0.3204293994002423
mp-11460,HfTc,"Hf, Tc",2,0.0,Cubic,221,Pm-3m,0.0,False,True,0.29999999999999993
mp-976784,NiAu3,"Au, Ni",2,0.08892086999999549,Cubic,221,Pm-3m,0.0,True,True,0.2727980021920982
mp-1649,Fe3Pt,"Fe, Pt",2,0.043079117500000486,Cubic,221,Pm-3m,0.0,False,True,0.19485571585149858
mp-20582,LaIn,"In, La",2,0.0,Cubic,221,Pm-3m,0.0,False,True,0.33999999999999997
mp-559,YPd3,"Pd, Y",2,0.0,Cubic,221,Pm-3m,0.0,False,True,0.42435244785437504
mp-11566,ScZn,"Sc, Zn",2,0.0,Cubic,221,Pm-3m,0.0,False,True,0.1449999999999999
mp-983585,Al3Zn,"Al, Zn",2,0.036298491250000176,Cubic,221,Pm-3m,0.0,True,True,0.017320508075688693
mp-2399,YHg,"Hg, Y",2,0.0,Cubic,221,Pm-3m,0.0,False,True,0.39
mp-983237,Ga3Bi,"Bi, Ga",2,0.06012677187499982,Cubic,221,Pm-3m,0.0,True,True,0.09093266739736604
mp-979423,YGa3,"Ga, Y",2,0.04963566374999928,Cubic,221,Pm-3m,0.0,True,True,0.2554774941164094
mp-11517,NbRu3,"Nb, Ru",2,0.0,Cubic,221,Pm-3m,0.0,False,True,0.2598076211353316
mp-12594,TiIr,"Ir, Ti",2,0.08534831500000095,Cubic,221,Pm-3m,0.0,False,True,0.33000000000000007
mp-11521,ScNi,"Ni, Sc",2,0.0,Cubic,221,Pm-3m,0.0,False,True,0.2749999999999999
mp-635,ScRh3,"Rh, Sc",2,0.0,Cubic,221,Pm-3m,0.0,False,True,0.39837168574084164
mp-978498,Sc3Al,"Al, Sc",2,0.05220380249999934,Cubic,221,Pm-3m,0.0,True,True,0.10825317547305482
mp-372,VPt3,"Pt, V",2,0.0,Cubic,221,Pm-3m,0.0,False,True,0.2814582562299425
mp-1094791,Mg3Zn,"Mg, Zn",2,0.05621799365000024,Cubic,221,Pm-3m,0.28480000000000016,True,False,0.1472243186433545
mp-1183974,GaBi3,"Bi, Ga",2,0.08353060312499982,Cubic,221,Pm-3m,0.0,True,True,0.09093266739736604
mp-1187250,TaTi3,"Ta, Ti",2,0.09496721249999851,Cubic,221,Pm-3m,0.0,True,True,0.01732050807568879
mp-1172,MgRh,"Mg, Rh",2,0.0,Cubic,221,Pm-3m,0.0,False,True,0.4849999999999999
mp-13496,ZrPd,"Pd, Zr",2,0.06452598250000108,Cubic,221,Pm-3m,0.0,False,True,0.43500000000000005
mp-1183945,CsRb3,"Cs, Rb",2,0.024973896961205444,Cubic,221,Pm-3m,0.0,True,True,0.012990381056766543
mp-1010953,MgNi,"Mg, Ni",2,0.04428836576388928,Cubic,221,Pm-3m,0.0,True,True,0.29999999999999993
mp-12110,TaRu,"Ru, Ta",2,0.03351981000000137,Cubic,221,Pm-3m,0.0,False,True,0.3500000000000001
mp-999298,Pd3Au,"Au, Pd",2,0.0,Cubic,221,Pm-3m,0.0,True,True,0.1472243186433545
mp-2121,ScAl3,"Al, Sc",2,0.0,Cubic,221,Pm-3m,0.0,False,True,0.10825317547305482
mp-1183751,CoNi3,"Co, Ni",2,0.024802626250000515,Cubic,221,Pm-3m,0.0,True,True,0.012990381056766592
mp-11498,MgTl,"Mg, Tl",2,0.0,Cubic,221,Pm-3m,0.0,False,True,0.15500000000000003
mp-1020,TaRh3,"Rh, Ta",2,0.0,Cubic,221,Pm-3m,0.0,False,True,0.337749907475931
mp-2090,FeCo,"Co, Fe",2,0.0,Cubic,221,Pm-3m,0.0,False,True,0.02499999999999991
mp-22704,YIn,"In, Y",2,0.0,Cubic,221,Pm-3m,0.0,False,True,0.28
mp-21215,InPd,"In, Pd",2,0.005904551666667146,Cubic,221,Pm-3m,0.0,False,True,0.21000000000000008
mp-1187243,TaOs3,"Os, Ta",2,0.0,Cubic,221,Pm-3m,0.0,True,True,0.3031088913245536
mp-30867,ScRu,"Ru, Sc",2,0.0,Cubic,221,Pm-3m,0.0,False,True,0.42000000000000004
mp-2426,LiAg,"Ag, Li",2,0.0,Cubic,221,Pm-3m,0.0,False,True,0.475
mp-2667,CsAu,"Au, Cs",2,0.0,Cubic,221,Pm-3m,1.0232999999999999,False,False,0.875
mp-11407,GaPt3,"Ga, Pt",2,0.014427044999997918,Cubic,221,Pm-3m,0.0,False,True,0.20351596988934298
mp-1183143,AlPd3,"Al, Pd",2,0.04402146750000213,Cubic,221,Pm-3m,0.0,True,True,0.2554774941164094
mp-977552,Be3Tc,"Be, Tc",2,0.0,Cubic,221,Pm-3m,0.0,True,True,0.14289419162443232
mp-1197367,SrHg11,"Hg, Sr",2,0.05080219021825072,Cubic,221,Pm-3m,0.0,False,True,0.2902046691560975
mp-864794,ZnAg3,"Ag, Zn",2,0.006065487499999023,Cubic,221,Pm-3m,0.0,True,True,0.12124355652982143
mp-2593,AlNi3,"Al, Ni",2,0.0,Cubic,221,Pm-3m,0.0,False,True,0.12990381056766573
mp-1438,ZrIr3,"Ir, Zr",2,0.0,Cubic,221,Pm-3m,0.0,False,True,0.37672105064623085
mp-592,TiRu,"Ru, Ti",2,0.0,Cubic,221,Pm-3m,0.0,False,True,0.33000000000000007
mp-1018081,CrFe3,"Cr, Fe",2,0.050002915000000314,Cubic,221,Pm-3m,0.0,True,True,0.07361215932167735
mp-331,ScAl,"Al, Sc",2,0.0,Cubic,221,Pm-3m,0.0,False,True,0.125
mp-972185,Tl3Hg,"Hg, Tl",2,0.027282111666664832,Cubic,221,Pm-3m,0.0,True,True,0.1645448267190433
mp-987,ZnCu,"Cu, Zn",2,0.0,Cubic,221,Pm-3m,0.0,False,True,0.125
mp-1185846,MgAu3,"Au, Mg",2,0.016649699499997617,Cubic,221,Pm-3m,0.0,True,True,0.5326056233274298
mp-922,CoPt3,"Co, Pt",2,0.0,Cubic,221,Pm-3m,0.0,False,True,0.1732050807568877
mp-2808,ZrRh,"Rh, Zr",2,0.08393397999999763,Cubic,221,Pm-3m,0.0,False,True,0.47499999999999987
mp-1094969,MgGa3,"Ga, Mg",2,0.020106949687500375,Cubic,221,Pm-3m,0.0,True,True,0.21650635094610965
mp-11313,ZrCd3,"Cd, Zr",2,0.0,Cubic,221,Pm-3m,0.0,True,True,0.1558845726811989
mp-1094889,LiMg,"Li, Mg",2,0.006518542499999835,Cubic,221,Pm-3m,0.0,True,True,0.16500000000000004
mp-1684,ZnAu,"Au, Zn",2,0.0,Cubic,221,Pm-3m,0.0,False,True,0.44500000000000006
mp-11952,KHg11,"Hg, K",2,0.0,Cubic,221,Pm-3m,0.0,False,True,0.3261347710516143
mp-11488,LaTl,"La, Tl",2,0.0,Cubic,221,Pm-3m,0.0,False,True,0.26
mp-542569,AlRu,"Al, Ru",2,0.0,Cubic,221,Pm-3m,0.0,False,True,0.29500000000000004
mp-11522,Ni3Sn,"Ni, Sn",2,0.0,Cubic,221,Pm-3m,0.0,False,True,0.021650635094610987
mp-11953,RbHg11,"Hg, Rb",2,0.0,Cubic,221,Pm-3m,0.0,False,True,0.3261347710516143
mp-1094669,MgSn,"Mg, Sn",2,0.0559883787500004,Cubic,221,Pm-3m,0.0,True,True,0.32499999999999996
mp-20997,InNi,"In, Ni",2,0.09218754000000118,Cubic,221,Pm-3m,0.0,False,True,0.06499999999999995
mp-1186902,Re3Ir,"Ir, Re",2,0.0,Cubic,221,Pm-3m,0.0,True,True,0.1299038105676659
mp-11484,ZrIr,"Ir, Zr",2,0.08134236125000172,Cubic,221,Pm-3m,0.0,False,True,0.43500000000000005
mp-982773,Na3Tl,"Na, Tl",2,0.022761539062500447,Cubic,221,Pm-3m,0.0,True,True,0.29877876430563133
mp-978271,Mg3Al,"Al, Mg",2,0.027507425520833628,Cubic,221,Pm-3m,0.0,True,True,0.1299038105676658
mp-1183161,Al3Cu,"Al, Cu",2,0.0962458349999995,Cubic,221,Pm-3m,0.0,True,True,0.12557368354874351
mp-1094792,Mg3Zr,"Mg, Zr",2,0.05878296624999946,Cubic,221,Pm-3m,0.0,True,True,0.008660254037844395
mp-11358,TaCo3,"Co, Ta",2,0.0,Cubic,221,Pm-3m,0.0,False,True,0.1645448267190433
mp-1104,LaMg,"La, Mg",2,0.005696517500002329,Cubic,221,Pm-3m,0.0,False,True,0.10499999999999998
mp-865786,CrPd3,"Cr, Pd",2,0.0,Cubic,221,Pm-3m,0.0,True,True,0.23382685902179856
mp-649,FePt3,"Fe, Pt",2,0.0,Cubic,221,Pm-3m,0.0,False,True,0.19485571585149858
mp-1187151,SrCa3,"Ca, Sr",2,0.03131187749999853,Cubic,221,Pm-3m,0.0,True,True,0.021650635094610987
mp-1183489,Ca3Sn,"Ca, Sn",2,0.04742390062499924,Cubic,221,Pm-3m,0.0,True,True,0.41569219381653055
mp-30353,AgPt3,"Ag, Pt",2,0.07138850416666287,Cubic,221,Pm-3m,0.0,False,True,0.15155444566227672
mp-316,MnV,"Mn, V",2,0.0,Cubic,221,Pm-3m,0.0,False,True,0.039999999999999925
mp-11573,TiTc,"Tc, Ti",2,0.0,Cubic,221,Pm-3m,0.0,False,True,0.17999999999999994
mp-861931,LiPt3,"Li, Pt",2,0.0,Cubic,221,Pm-3m,0.0,True,True,0.562916512459885
mp-973292,MnBe3,"Be, Mn",2,0.010523769750001577,Cubic,221,Pm-3m,0.0,True,True,0.008660254037844393
mp-1082,VIr3,"Ir, V",2,0.015957168749999084,Cubic,221,Pm-3m,0.0,False,True,0.24681724007856512
mp-1185300,LiAg3,"Ag, Li",2,0.00875260000000111,Cubic,221,Pm-3m,0.0,True,True,0.41136206679760834
mp-30777,MgPt3,"Mg, Pt",2,0.0,Cubic,221,Pm-3m,0.0,True,True,0.42002232083545266
mp-11388,GaIr,"Ga, Ir",2,0.0,Cubic,221,Pm-3m,0.0,False,True,0.1950000000000001
mp-20849,Pd3Pb,"Pb, Pd",2,0.0,Cubic,221,Pm-3m,0.0,False,True,0.056291651245988464
mp-2861,CaTl,"Ca, Tl",2,0.0,Cubic,221,Pm-3m,0.0,False,True,0.31000000000000005
mp-1206376,MnAu3,"Au, Mn",2,0.08613502625000535,Cubic,221,Pm-3m,0.0,True,True,0.4286825748732971
mp-1408,MgHg,"Hg, Mg",2,0.0,Cubic,221,Pm-3m,0.0,False,True,0.345
mp-19870,GaFe3,"Fe, Ga",2,0.0,Cubic,221,Pm-3m,0.0,False,True,0.008660254037844395
mp-1073,CaCd,"Ca, Cd",2,0.0,Cubic,221,Pm-3m,0.0,False,True,0.345
mp-191,YRh,"Rh, Y",2,0.0,Cubic,221,Pm-3m,0.0,False,True,0.5299999999999999
mp-22320,GaRu,"Ga, Ru",2,0.0005310187499993901,Cubic,221,Pm-3m,0.0,False,True,0.1950000000000001
mp-12067,MnAl,"Al, Mn",2,0.04769594000000055,Cubic,221,Pm-3m,0.0,False,True,0.030000000000000027
mp-6938,ZnRh,"Rh, Zn",2,0.0,Cubic,221,Pm-3m,0.0,False,True,0.31499999999999995
mp-2615,LaZn,"La, Zn",2,0.0,Cubic,221,Pm-3m,0.0,False,True,0.2749999999999999
mp-12798,Ni3Pt,"Ni, Pt",2,0.0,Cubic,221,Pm-3m,0.0,False,True,0.1602146997001211
mp-20291,YPb3,"Pb, Y",2,0.015527627499999141,Cubic,221,Pm-3m,0.0,False,True,0.4806440991003635
mp-1418,FeNi3,"Fe, Ni",2,0.0,Cubic,221,Pm-3m,0.0,False,True,0.034641016151377484
mp-2540,VTc,"Tc, V",2,0.0,Cubic,221,Pm-3m,0.0,False,True,0.135
mp-1183704,CoRh3,"Co, Rh",2,0.06548379374999769,Cubic,221,Pm-3m,0.0,True,True,0.1732050807568877
mp-437,MgAu,"Au, Mg",2,0.0,Cubic,221,Pm-3m,0.0,False,True,0.615
mp-974395,Pt3Rh,"Pt, Rh",2,0.01815076499999435,Cubic,221,Pm-3m,0.0,True,True,0.0
mp-867816,TaRu3,"Ru, Ta",2,0.0,Cubic,221,Pm-3m,0.0,True,True,0.3031088913245536
mp-1201591,LaCd11,"Cd, La",2,0.0,Cubic,221,Pm-3m,0.0,False,True,0.1630673855258071
mp-1187154,SrIn3,"In, Sr",2,0.05257754300000039,Cubic,221,Pm-3m,0.0,True,True,0.35940054257054205
mp-861936,LiPd3,"Li, Pd",2,0.0,Cubic,221,Pm-3m,0.0,True,True,0.5282754963085077
mp-1183391,BaPb3,"Ba, Pb",2,0.031871516666664323,Cubic,221,Pm-3m,0.0,True,True,0.6235382907247959
mp-1007974,CrNi3,"Cr, Ni",2,0.007950109999999455,Cubic,221,Pm-3m,0.0,True,True,0.10825317547305482
mp-229,ZrRh3,"Rh, Zr",2,0.0,Cubic,221,Pm-3m,0.0,False,True,0.4113620667976083
mp-973834,PdAu3,"Au, Pd",2,0.004613015000003884,Cubic,221,Pm-3m,0.0,True,True,0.1472243186433545
mp-23201,BaBi3,"Ba, Bi",2,0.0,Cubic,221,Pm-3m,0.0,False,True,0.48930435313820786
mp-915,YCd,"Cd, Y",2,0.0,Cubic,221,Pm-3m,0.0,False,True,0.235
mp-20555,NaPb3,"Na, Pb",2,0.0,Cubic,221,Pm-3m,0.0,False,True,0.606217782649107
mp-30858,ZrPt3,"Pt, Zr",2,0.016842564374996982,Cubic,221,Pm-3m,0.0,False,True,0.4113620667976083
mp-11473,TlHg,"Hg, Tl",2,0.01484476833332593,Cubic,221,Pm-3m,0.0,False,True,0.18999999999999995
mp-1183655,CdPd3,"Cd, Pd",2,0.02570959750000057,Cubic,221,Pm-3m,0.0,True,True,0.22083647796503195
mp-2012,LiHg,"Hg, Li",2,0.0,Cubic,221,Pm-3m,0.0,False,True,0.51
mp-1094779,MgZn,"Mg, Zn",2,0.04320482229999989,Cubic,221,Pm-3m,0.0,True,True,0.16999999999999993
mp-11516,NbRu,"Nb, Ru",2,0.024435130000000527,Cubic,221,Pm-3m,0.0,False,True,0.30000000000000004
mp-2564,SrMg,"Mg, Sr",2,0.016734022499999668,Cubic,221,Pm-3m,0.0,False,True,0.18000000000000005
mp-11501,MnNi3,"Mn, Ni",2,0.0,Cubic,221,Pm-3m,0.0,False,True,0.1558845726811989
mp-580357,Cu3Pd,"Cu, Pd",2,0.004421831071429239,Cubic,221,Pm-3m,0.0,False,True,0.1299038105676659
mp-867883,La3Pb,"La, Pb",2,0.0,Cubic,221,Pm-3m,0.0,True,True,0.5326056233274298
mp-718,SnPd3,"Pd, Sn",2,0.0,Cubic,221,Pm-3m,0.0,False,True,0.10392304845413274
mp-2743,LiPd,"Li, Pd",2,0.021507794999999774,Cubic,221,Pm-3m,0.0,False,True,0.6100000000000001
mp-11474,TlHg3,"Hg, Tl",2,0.0,Cubic,221,Pm-3m,0.0,False,True,0.1645448267190433
mp-2258,Cu3Au,"Au, Cu",2,0.0,Cubic,221,Pm-3m,0.0,False,True,0.2771281292110204
mp-1009133,MnCo,"Co, Mn",2,0.0,Cubic,221,Pm-3m,0.0,True,True,0.16499999999999992
mp-1184844,K3Na,"K, Na",2,0.02311581218750014,Cubic,221,Pm-3m,0.0,True,True,0.04763139720814417
mp-22461,Fe3Sn,"Fe, Sn",2,0.08591179999999898,Cubic,221,Pm-3m,0.0,False,True,0.056291651245988464
mp-30479,Ca3Pb,"Ca, Pb",2,0.0422716649999999,Cubic,221,Pm-3m,0.0,False,True,0.5759068935166517
mp-570428,Sc3In,"In, Sc",2,0.01799844249999971,Cubic,221,Pm-3m,0.0,False,True,0.1818653347947321
mp-571,TiNi,"Ni, Ti",2,0.048494374999999756,Cubic,221,Pm-3m,0.0,False,True,0.18499999999999994
mp-213,CaPd,"Ca, Pd",2,0.006872011666665401,Cubic,221,Pm-3m,0.0,False,True,0.6000000000000001
mp-1186016,Mo3Pt,"Mo, Pt",2,0.07392594750000114,Cubic,221,Pm-3m,0.0,True,True,0.05196152422706617
mp-1016227,LaMg3,"La, Mg",2,0.08744179249999995,Cubic,221,Pm-3m,0.0,True,True,0.09093266739736605
mp-1188029,Zr3Cd,"Cd, Zr",2,0.019827343749998505,Cubic,221,Pm-3m,0.0,True,True,0.1558845726811989
mp-633,LaSn3,"La, Sn",2,0.0,Cubic,221,Pm-3m,0.0,False,True,0.3723909236273086
mp-932,ScGa3,"Ga, Sc",2,0.0,Cubic,221,Pm-3m,0.0,False,True,0.1948557158514987
mp-636328,TiPd3,"Pd, Ti",2,0.0048098193749979146,Cubic,221,Pm-3m,0.0,False,True,0.2857883832488648
mp-1185312,LiCu3,"Cu, Li",2,0.006164229999999549,Cubic,221,Pm-3m,0.0,True,True,0.3983716857408417
mp-30475,CaHg11,"Ca, Hg",2,0.08831153194444852,Cubic,221,Pm-3m,0.0,False,True,0.2763853991962833
mp-526,CaTl3,"Ca, Tl",2,0.0,Cubic,221,Pm-3m,0.0,False,True,0.26846787517317605
mp-776,LaCd,"Cd, La",2,0.0,Cubic,221,Pm-3m,0.0,False,True,0.29499999999999993
mp-1152,TiRh3,"Rh, Ti",2,0.0,Cubic,221,Pm-3m,0.0,False,True,0.3204293994002422
mp-11274,BePd,"Be, Pd",2,0.0,Cubic,221,Pm-3m,0.0,False,True,0.31500000000000006
mp-863027,LiIn3,"In, Li",2,0.0,Cubic,221,Pm-3m,0.0,True,True,0.34641016151377546
mp-11248,LiAu3,"Au, Li",2,0.0,Cubic,221,Pm-3m,0.0,False,True,0.6754998149518622
mp-20549,CaPb3,"Ca, Pb",2,0.0,Cubic,221,Pm-3m,0.0,False,True,0.5759068935166517
mp-1183623,CdCu3,"Cd, Cu",2,0.0800766399999997,Cubic,221,Pm-3m,0.0,True,True,0.09093266739736605
mp-1174,MgSc,"Mg, Sc",2,0.0,Cubic,221,Pm-3m,0.0,False,True,0.025000000000000022
mp-570276,ZrZn,"Zn, Zr",2,0.0,Cubic,221,Pm-3m,0.0,False,True,0.15999999999999992
mp-978282,Mg3Hg,"Hg, Mg",2,0.017491376249999746,Cubic,221,Pm-3m,0.0,True,True,0.2987787643056313
mp-20131,YIn3,"In, Y",2,0.0,Cubic,221,Pm-3m,0.0,False,True,0.24248711305964285
mp-1211,ScCd,"Cd, Sc",2,0.0,Cubic,221,Pm-3m,0.0,False,True,0.16499999999999992
mp-1206794,LiAu,"Au, Li",2,0.0,Cubic,221,Pm-3m,0.0,True,True,0.78
mp-2323,BeCu,"Be, Cu",2,0.005036342500000401,Cubic,221,Pm-3m,0.0,False,True,0.16499999999999992
mp-815,GaNi3,"Ga, Ni",2,0.0,Cubic,221,Pm-3m,0.0,False,True,0.04330127018922188
mp-1187219,Ta3Pt,"Pt, Ta",2,0.05295984541666243,Cubic,221,Pm-3m,0.0,True,True,0.337749907475931
mp-569785,TlPd3,"Pd, Tl",2,0.03574012374999924,Cubic,221,Pm-3m,0.0,True,True,0.25114736709748725
mp-1184771,Ir3Rh,"Ir, Rh",2,0.006866324999997175,Cubic,221,Pm-3m,0.0,True,True,0.034641016151377386
mp-1187257,TaZn3,"Ta, Zn",2,0.016571697812498343,Cubic,221,Pm-3m,0.0,True,True,0.06495190528383286
mp-734,LaHg,"Hg, La",2,0.0,Cubic,221,Pm-3m,0.0,False,True,0.44999999999999996
mp-527,BaCd,"Ba, Cd",2,0.0,Cubic,221,Pm-3m,0.0,False,True,0.39999999999999997
mp-1185543,CsK3,"Cs, K",2,0.016812658750000153,Cubic,221,Pm-3m,0.0,True,True,0.012990381056766543
mp-1186760,SrSn3,"Sn, Sr",2,0.05659098666666296,Cubic,221,Pm-3m,0.0,True,True,0.4373428289111415
mp-674,LaPd3,"La, Pd",2,0.0,Cubic,221,Pm-3m,0.0,False,True,0.47631397208144133
mp-1186137,NaHg3,"Hg, Na",2,0.018782196250000993,Cubic,221,Pm-3m,0.0,True,True,0.46332359102467463
mp-1094867,MgZn3,"Mg, Zn",2,0.05199323797618893,Cubic,221,Pm-3m,0.0,True,True,0.1472243186433545
mp-506,MgPd,"Mg, Pd",2,0.0,Cubic,221,Pm-3m,0.0,False,True,0.44500000000000006
mp-1007730,HfAl3,"Al, Hf",2,0.02683596499999652,Cubic,221,Pm-3m,0.0,True,True,0.13423393758658803
mp-2672345,MgCu,"Cu, Mg",2,0.03095345624999979,Cubic,221,Pm-3m,0.0,True,True,0.29499999999999993
mp-22784,InNi3,"In, Ni",2,0.07934622749999853,Cubic,221,Pm-3m,0.0,False,True,0.056291651245988464
mp-866186,Ti3Zn,"Ti, Zn",2,0.01046169916666706,Cubic,221,Pm-3m,0.0,True,True,0.04763139720814407