material_id,formula,elements,num_elements,energy_above_hull,crystal_system,spacegroup_number,spacegroup_symbol,band_gap,theoretical,is_metal,electronegativity_difference,atomic_concentrations
mp-31499,Mg29Ir4,"Ir, Mg",2,0.001208079531026307,Cubic,216,F-43m,0.0,False,True,0.2905,Mg: 0.8788; Ir: 0.1212
mp-569516,HfNi5,"Hf, Ni",2,0.02767773183333233,Cubic,216,F-43m,0.0,False,True,0.2273,Hf: 0.1667; Ni: 0.8333
mp-1199736,Y11Cd45,"Cd, Y",2,0.0,Cubic,216,F-43m,0.0,False,True,0.1867,Y: 0.1964; Cd: 0.8036
mp-569273,Mg44Ir7,"Ir, Mg",2,0.0,Cubic,216,F-43m,0.0,False,True,0.3063,Mg: 0.8627; Ir: 0.1373
mp-1025010,Be5Fe,"Be, Fe",2,0.04924908499999958,Cubic,216,F-43m,0.0,False,True,0.0969,Be: 0.8333; Fe: 0.1667
mp-23187,La4Bi3,"Bi, La",2,0.009021280714287094,Cubic,220,I-43d,0.0,False,True,0.4553,La: 0.5714; Bi: 0.4286
mp-21895,Na15Pb4,"Na, Pb",2,0.0,Cubic,220,I-43d,0.0,False,True,0.5708,Na: 0.7895; Pb: 0.2105
mp-30892,Ba4Bi3,"Ba, Bi",2,0.0,Cubic,220,I-43d,0.0,False,True,0.5592,Ba: 0.5714; Bi: 0.4286
mp-1197547,Li15Pd4,"Li, Pd",2,0.0,Cubic,220,I-43d,0.0,False,True,0.4974,Li: 0.7895; Pd: 0.2105
mp-567395,Li15Au4,"Au, Li",2,0.0,Cubic,220,I-43d,0.0,False,True,0.6360,Li: 0.7895; Au: 0.2105
mp-571336,La4Pb3,"La, Pb",2,0.0,Cubic,220,I-43d,0.0,False,True,0.6087,La: 0.5714; Pb: 0.4286
mp-626,La4Rh3,"La, Rh",2,0.0,Cubic,220,I-43d,0.0,False,True,0.5839,La: 0.5714; Rh: 0.4286
mp-30893,Sr4Bi3,"Bi, Sr",2,0.0,Cubic,220,I-43d,0.0,False,True,0.5295,Sr: 0.5714; Bi: 0.4286
mp-30794,Na15Sn4,"Na, Sn",2,0.0,Cubic,220,I-43d,0.0,False,True,0.4199,Na: 0.7895; Sn: 0.2105
mp-30424,Zn3Au,"Au, Zn",2,0.0,Cubic,223,Pm-3n,0.0,False,True,0.3854,Zn: 0.7500; Au: 0.2500
mp-2496,Cs4Sn23,"Cs, Sn",2,0.0,Cubic,223,Pm-3n,0.0,False,True,0.4156,Cs: 0.1481; Sn: 0.8519
mp-1664,V3Pd,"Pd, V",2,0.0,Cubic,223,Pm-3n,0.0,False,True,0.2468,V: 0.7500; Pd: 0.2500
mp-1932,Nb3Os,"Nb, Os",2,0.0,Cubic,223,Pm-3n,0.0,False,True,0.2598,Nb: 0.7500; Os: 0.2500
mp-2211,V3Pt,"Pt, V",2,0.0,Cubic,223,Pm-3n,0.0,False,True,0.2815,V: 0.7500; Pt: 0.2500
mp-839,V3Au,"Au, V",2,0.0,Cubic,223,Pm-3n,0.0,False,True,0.3940,V: 0.7500; Au: 0.2500
mp-1458,Nb3Ir,"Ir, Nb",2,0.0,Cubic,223,Pm-3n,0.0,False,True,0.2598,Nb: 0.7500; Ir: 0.2500
mp-2663,Nb3Pt,"Nb, Pt",2,0.0,Cubic,223,Pm-3n,0.0,False,True,0.2944,Nb: 0.7500; Pt: 0.2500
mp-11027,Cs3Hg20,"Cs, Hg",2,0.0023572880150964926,Cubic,223,Pm-3n,0.0,False,True,0.4075,Cs: 0.1304; Hg: 0.8696
mp-2339,Ti3Pt,"Pt, Ti",2,0.0,Cubic,223,Pm-3n,0.0,False,True,0.3204,Ti: 0.7500; Pt: 0.2500
mp-30788,SnMo3,"Mo, Sn",2,0.05509164124999799,Cubic,223,Pm-3n,0.0,False,True,0.0866,Sn: 0.2500; Mo: 0.7500
mp-569249,Ta3Au,"Au, Ta",2,0.0,Cubic,223,Pm-3n,0.0,False,True,0.4503,Ta: 0.7500; Au: 0.2500
mp-1387,AlV3,"Al, V",2,0.0,Cubic,223,Pm-3n,0.0,False,True,0.0087,Al: 0.2500; V: 0.7500
mp-2354,Ti3Hg,"Hg, Ti",2,0.0,Cubic,223,Pm-3n,0.0,False,True,0.1992,Ti: 0.7500; Hg: 0.2500
mp-544,Ti3Ir,"Ir, Ti",2,0.0,Cubic,223,Pm-3n,0.0,False,True,0.2858,Ti: 0.7500; Ir: 0.2500
mp-2670,Nb3Ga,"Ga, Nb",2,0.05837239187500032,Cubic,223,Pm-3n,0.0,False,True,0.0909,Nb: 0.7500; Ga: 0.2500
mp-13909,K4Sn23,"K, Sn",2,0.0,Cubic,223,Pm-3n,0.0,False,True,0.4050,K: 0.1481; Sn: 0.8519
mp-30871,Ta3Sn,"Sn, Ta",2,0.0,Cubic,223,Pm-3n,0.0,False,True,0.1992,Ta: 0.7500; Sn: 0.2500
mp-568014,Nb3Bi,"Bi, Nb",2,0.020126058749999842,Cubic,223,Pm-3n,0.0,False,True,0.1819,Nb: 0.7500; Bi: 0.2500
mp-21342,V3Sn,"Sn, V",2,0.0,Cubic,223,Pm-3n,0.0,False,True,0.1429,V: 0.7500; Sn: 0.2500
mp-1585,V3Co,"Co, V",2,0.0,Cubic,223,Pm-3n,0.0,False,True,0.1083,V: 0.7500; Co: 0.2500
mp-1578,V3Rh,"Rh, V",2,0.0,Cubic,223,Pm-3n,0.0,False,True,0.2815,V: 0.7500; Rh: 0.2500
mp-801,Mo3Os,"Mo, Os",2,0.0017573587499981613,Cubic,223,Pm-3n,0.0,False,True,0.0173,Mo: 0.7500; Os: 0.2500
mp-1326,Nb3Sn,"Nb, Sn",2,0.0,Cubic,223,Pm-3n,0.0,False,True,0.1559,Nb: 0.7500; Sn: 0.2500
mp-22060,Nb3In,"In, Nb",2,0.0,Cubic,223,Pm-3n,0.0,False,True,0.0779,Nb: 0.7500; In: 0.2500
mp-259,AlMo3,"Al, Mo",2,0.0,Cubic,223,Pm-3n,0.0,False,True,0.2382,Al: 0.2500; Mo: 0.7500
mp-7226,V3Ni,"Ni, V",2,0.0,Cubic,223,Pm-3n,0.0,False,True,0.1212,V: 0.7500; Ni: 0.2500
mp-2006,V3Ir,"Ir, V",2,0.0,Cubic,223,Pm-3n,0.0,False,True,0.2468,V: 0.7500; Ir: 0.2500
mp-1200220,Al3Ir,"Al, Ir",2,0.09830075218750167,Cubic,223,Pm-3n,0.0,False,True,0.2555,Al: 0.7500; Ir: 0.2500
mp-1630,Zr3Hg,"Hg, Zr",2,0.0,Cubic,223,Pm-3n,0.0,False,True,0.2901,Zr: 0.7500; Hg: 0.2500
mp-1545,Nb3Rh,"Nb, Rh",2,0.0,Cubic,223,Pm-3n,0.0,False,True,0.2944,Nb: 0.7500; Rh: 0.2500
mp-11263,Zr3Au,"Au, Zr",2,0.0,Cubic,223,Pm-3n,0.0,False,True,0.5239,Zr: 0.7500; Au: 0.2500
mp-1079399,V3Fe,"Fe, V",2,0.0,Cubic,223,Pm-3n,0.0,False,True,0.0866,V: 0.7500; Fe: 0.2500
mp-11026,Rb3Hg20,"Hg, Rb",2,0.012804760491146427,Cubic,223,Pm-3n,0.0,False,True,0.3974,Rb: 0.1304; Hg: 0.8696
mp-2377,GaMo3,"Ga, Mo",2,0.0,Cubic,223,Pm-3n,0.0,False,True,0.1516,Ga: 0.2500; Mo: 0.7500
mp-1272,Cr3Ru,"Cr, Ru",2,0.08198951375000263,Cubic,223,Pm-3n,0.0,False,True,0.2338,Cr: 0.7500; Ru: 0.2500
mp-1120,Mo3Ir,"Ir, Mo",2,0.06501973499999991,Cubic,223,Pm-3n,0.0,False,True,0.0173,Mo: 0.7500; Ir: 0.2500
mp-796,Nb3Al,"Al, Nb",2,0.0409174080000021,Cubic,223,Pm-3n,0.0,False,True,0.0043,Nb: 0.7500; Al: 0.2500
mp-1232,Mo3Pt,"Mo, Pt",2,0.076285793750003,Cubic,223,Pm-3n,0.0,False,True,0.0520,Mo: 0.7500; Pt: 0.2500
mp-2752,Nb3Au,"Au, Nb",2,0.003468576250003963,Cubic,223,Pm-3n,0.0,False,True,0.4070,Nb: 0.7500; Au: 0.2500
mp-30876,Zr3Sn,"Sn, Zr",2,0.028289383749999786,Cubic,223,Pm-3n,0.0,False,True,0.2728,Zr: 0.7500; Sn: 0.2500
mp-22568,V3Ga,"Ga, V",2,0.0,Cubic,223,Pm-3n,0.0,False,True,0.0779,V: 0.7500; Ga: 0.2500
mp-1786,Ti3Au,"Au, Ti",2,0.0,Cubic,223,Pm-3n,0.0,False,True,0.4330,Ti: 0.7500; Au: 0.2500
mp-1193170,LaZn13,"La, Zn",2,0.0,Cubic,226,Fm-3c,0.0,False,True,0.1416,La: 0.0714; Zn: 0.9286
mp-784,KZn13,"K, Zn",2,0.0,Cubic,226,Fm-3c,0.0,False,True,0.2138,K: 0.0714; Zn: 0.9286
mp-397,KCd13,"Cd, K",2,0.0,Cubic,226,Fm-3c,0.0,False,True,0.2241,K: 0.0714; Cd: 0.9286
mp-1194443,LaCu13,"Cu, La",2,0.0,Cubic,226,Fm-3c,0.0,False,True,0.2060,La: 0.0714; Cu: 0.9286
mp-2080,SrBe13,"Be, Sr",2,0.0,Cubic,226,Fm-3c,0.0,False,True,0.1597,Sr: 0.0714; Be: 0.9286
mp-1878,HfBe13,"Be, Hf",2,0.0,Cubic,226,Fm-3c,0.0,False,True,0.0695,Hf: 0.0714; Be: 0.9286
mp-950,NaZn13,"Na, Zn",2,0.0,Cubic,226,Fm-3c,0.0,False,True,0.1854,Na: 0.0714; Zn: 0.9286
mp-672227,CaZn13,"Ca, Zn",2,0.005347061428570443,Cubic,226,Fm-3c,0.0,False,True,0.1674,Ca: 0.0714; Zn: 0.9286
mp-672225,BaZn13,"Ba, Zn",2,0.0,Cubic,226,Fm-3c,0.0,False,True,0.1957,Ba: 0.0714; Zn: 0.9286
mp-672707,SrZn13,"Sr, Zn",2,0.0,Cubic,226,Fm-3c,0.0,False,True,0.1803,Sr: 0.0714; Zn: 0.9286
mp-1193737,LiZn13,"Li, Zn",2,0.0,Cubic,226,Fm-3c,0.0,False,True,0.1726,Li: 0.0714; Zn: 0.9286
mp-1193251,LaBe13,"Be, La",2,0.0,Cubic,226,Fm-3c,0.0,False,True,0.1210,La: 0.0714; Be: 0.9286
mp-30425,BaBe13,"Ba, Be",2,0.03836030214285735,Cubic,226,Fm-3c,0.0,False,True,0.1751,Ba: 0.0714; Be: 0.9286
mp-1193534,YBe13,"Be, Y",2,0.0,Cubic,226,Fm-3c,0.0,False,True,0.0901,Y: 0.0714; Be: 0.9286
mp-855,MgBe13,"Be, Mg",2,0.0005214846428569508,Cubic,226,Fm-3c,0.0,False,True,0.0670,Mg: 0.0714; Be: 0.9286
mp-1713,CsCd13,"Cd, Cs",2,0.0,Cubic,226,Fm-3c,0.0,False,True,0.2318,Cs: 0.0714; Cd: 0.9286
mp-30559,LaCo13,"Co, La",2,0.0,Cubic,226,Fm-3c,0.0,False,True,0.2009,La: 0.0714; Co: 0.9286
mp-1040,RbCd13,"Cd, Rb",2,0.0,Cubic,226,Fm-3c,0.0,False,True,0.2241,Rb: 0.0714; Cd: 0.9286
mp-2504,RbZn13,"Rb, Zn",2,0.0,Cubic,226,Fm-3c,0.0,False,True,0.2138,Rb: 0.0714; Zn: 0.9286
mp-642,BaCu13,"Ba, Cu",2,0.0029819446428578367,Cubic,226,Fm-3c,0.0,False,True,0.2601,Ba: 0.0714; Cu: 0.9286
mp-30445,ZrBe13,"Be, Zr",2,0.0,Cubic,226,Fm-3c,0.0,False,True,0.0618,Zr: 0.0714; Be: 0.9286
mp-972891,ScBe13,"Be, Sc",2,0.0,Cubic,226,Fm-3c,0.0,False,True,0.0541,Sc: 0.0714; Be: 0.9286
mp-1845,CaBe13,"Be, Ca",2,0.0,Cubic,226,Fm-3c,0.0,False,True,0.1468,Ca: 0.0714; Be: 0.9286
mp-11256,ScAu,"Au, Sc",2,0.0,Cubic,221,Pm-3m,0.0,False,True,0.5900,Sc: 0.5000; Au: 0.5000
mp-11237,ScAg,"Ag, Sc",2,0.0,Cubic,221,Pm-3m,0.0,False,True,0.2850,Sc: 0.5000; Ag: 0.5000
mp-23159,SrBi3,"Bi, Sr",2,0.0,Cubic,221,Pm-3m,0.0,False,True,0.4633,Sr: 0.2500; Bi: 0.7500
mp-875,AlOs,"Al, Os",2,0.012587037500004783,Cubic,221,Pm-3m,0.0,False,True,0.2950,Al: 0.5000; Os: 0.5000
mp-1264,CdAu3,"Au, Cd",2,0.011046036249993563,Cubic,221,Pm-3m,0.0,False,True,0.3681,Cd: 0.2500; Au: 0.7500
mp-2212,ScCo,"Co, Sc",2,0.0,Cubic,221,Pm-3m,0.0,False,True,0.2600,Sc: 0.5000; Co: 0.5000
mp-1027,HfRh3,"Hf, Rh",2,0.0,Cubic,221,Pm-3m,0.0,False,True,0.4244,Hf: 0.2500; Rh: 0.7500
mp-11546,TiPd,"Pd, Ti",2,0.07338960750000112,Cubic,221,Pm-3m,0.0,False,True,0.3300,Ti: 0.5000; Pd: 0.5000
mp-1780,ScRh,"Rh, Sc",2,0.0,Cubic,221,Pm-3m,0.0,False,True,0.4600,Sc: 0.5000; Rh: 0.5000
mp-1941,GaNi,"Ga, Ni",2,0.042973296904763814,Cubic,221,Pm-3m,0.0,False,True,0.0500,Ga: 0.5000; Ni: 0.5000
mp-11290,CaSn3,"Ca, Sn",2,0.0,Cubic,221,Pm-3m,0.0,False,True,0.4157,Ca: 0.2500; Sn: 0.7500
mp-20516,InPt3,"In, Pt",2,0.0,Cubic,221,Pm-3m,0.0,False,True,0.2165,In: 0.2500; Pt: 0.7500
mp-2126,HfIr3,"Hf, Ir",2,0.0,Cubic,221,Pm-3m,0.0,False,True,0.3897,Hf: 0.2500; Ir: 0.7500
mp-712,YCu,"Cu, Y",2,0.018895730000000555,Cubic,221,Pm-3m,0.0,False,True,0.3400,Y: 0.5000; Cu: 0.5000
mp-11500,MnNi,"Mn, Ni",2,0.0,Cubic,221,Pm-3m,0.0,False,True,0.1800,Mn: 0.5000; Ni: 0.5000
mp-2696,MgAg,"Ag, Mg",2,0.0,Cubic,221,Pm-3m,0.0,False,True,0.3100,Mg: 0.5000; Ag: 0.5000
mp-569125,Mg3In,"In, Mg",2,0.016354179999998664,Cubic,221,Pm-3m,0.0,False,True,0.2035,Mg: 0.7500; In: 0.2500
mp-1948,LaAg,"Ag, La",2,0.0,Cubic,221,Pm-3m,0.0,False,True,0.4150,La: 0.5000; Ag: 0.5000
mp-21432,LaPb3,"La, Pb",2,0.0,Cubic,221,Pm-3m,0.0,False,True,0.5326,La: 0.2500; Pb: 0.7500
mp-12661,Cd3In,"Cd, In",2,0.04173347250000248,Cubic,221,Pm-3m,0.0,False,True,0.0390,Cd: 0.7500; In: 0.2500
mp-20971,SnPt3,"Pt, Sn",2,0.0,Cubic,221,Pm-3m,0.0,False,True,0.1386,Sn: 0.2500; Pt: 0.7500
mp-1169,ScCu,"Cu, Sc",2,0.0,Cubic,221,Pm-3m,0.0,False,True,0.2700,Sc: 0.5000; Cu: 0.5000
mp-20566,MgIn3,"In, Mg",2,0.024540943055557207,Cubic,221,Pm-3m,0.0,False,True,0.2035,Mg: 0.2500; In: 0.7500
mp-10596,FeIr3,"Fe, Ir",2,0.03003229249999606,Cubic,221,Pm-3m,0.0,False,True,0.1602,Fe: 0.2500; Ir: 0.7500
mp-892,ScPt,"Pt, Sc",2,0.0,Cubic,221,Pm-3m,0.0,False,True,0.4600,Sc: 0.5000; Pt: 0.5000
mp-542,SrHg,"Hg, Sr",2,0.0,Cubic,221,Pm-3m,0.0,False,True,0.5250,Sr: 0.5000; Hg: 0.5000
mp-11563,TiRh,"Rh, Ti",2,0.0201166999999991,Cubic,221,Pm-3m,0.0,False,True,0.3700,Ti: 0.5000; Rh: 0.5000
mp-30343,InAg3,"Ag, In",2,0.0,Cubic,221,Pm-3m,0.0,False,True,0.0650,In: 0.2500; Ag: 0.7500
mp-2103,CuAu3,"Au, Cu",2,0.006434499999997456,Cubic,221,Pm-3m,0.0,False,True,0.2771,Cu: 0.2500; Au: 0.7500
mp-823,TiCo,"Co, Ti",2,0.0,Cubic,221,Pm-3m,0.0,False,True,0.1700,Ti: 0.5000; Co: 0.5000
mp-934,LiTl,"Li, Tl",2,0.0,Cubic,221,Pm-3m,0.0,False,True,0.3200,Li: 0.5000; Tl: 0.5000
mp-20539,ScIn3,"In, Sc",2,0.0,Cubic,221,Pm-3m,0.0,False,True,0.1819,Sc: 0.2500; In: 0.7500
mp-2283,ZrCo,"Co, Zr",2,0.0,Cubic,221,Pm-3m,0.0,False,True,0.2750,Zr: 0.5000; Co: 0.5000
mp-305,TiFe,"Fe, Ti",2,0.0,Cubic,221,Pm-3m,0.0,False,True,0.1450,Ti: 0.5000; Fe: 0.5000
mp-11571,YSn3,"Sn, Y",2,0.023755627499997267,Cubic,221,Pm-3m,0.0,False,True,0.3204,Y: 0.2500; Sn: 0.7500
mp-11460,HfTc,"Hf, Tc",2,0.0,Cubic,221,Pm-3m,0.0,False,True,0.3000,Hf: 0.5000; Tc: 0.5000
mp-1649,Fe3Pt,"Fe, Pt",2,0.043079117500000486,Cubic,221,Pm-3m,0.0,False,True,0.1949,Fe: 0.7500; Pt: 0.2500
mp-20582,LaIn,"In, La",2,0.0,Cubic,221,Pm-3m,0.0,False,True,0.3400,La: 0.5000; In: 0.5000
mp-559,YPd3,"Pd, Y",2,0.0,Cubic,221,Pm-3m,0.0,False,True,0.4244,Y: 0.2500; Pd: 0.7500
mp-11566,ScZn,"Sc, Zn",2,0.0,Cubic,221,Pm-3m,0.0,False,True,0.1450,Sc: 0.5000; Zn: 0.5000
mp-2399,YHg,"Hg, Y",2,0.0,Cubic,221,Pm-3m,0.0,False,True,0.3900,Y: 0.5000; Hg: 0.5000
mp-11517,NbRu3,"Nb, Ru",2,0.0,Cubic,221,Pm-3m,0.0,False,True,0.2598,Nb: 0.2500; Ru: 0.7500
mp-12594,TiIr,"Ir, Ti",2,0.08534831500000095,Cubic,221,Pm-3m,0.0,False,True,0.3300,Ti: 0.5000; Ir: 0.5000
mp-11521,ScNi,"Ni, Sc",2,0.0,Cubic,221,Pm-3m,0.0,False,True,0.2750,Sc: 0.5000; Ni: 0.5000
mp-635,ScRh3,"Rh, Sc",2,0.0,Cubic,221,Pm-3m,0.0,False,True,0.3984,Sc: 0.2500; Rh: 0.7500
mp-372,VPt3,"Pt, V",2,0.0,Cubic,221,Pm-3m,0.0,False,True,0.2815,V: 0.2500; Pt: 0.7500
mp-1172,MgRh,"Mg, Rh",2,0.0,Cubic,221,Pm-3m,0.0,False,True,0.4850,Mg: 0.5000; Rh: 0.5000
mp-13496,ZrPd,"Pd, Zr",2,0.06452598250000108,Cubic,221,Pm-3m,0.0,False,True,0.4350,Zr: 0.5000; Pd: 0.5000
mp-12110,TaRu,"Ru, Ta",2,0.03351981000000137,Cubic,221,Pm-3m,0.0,False,True,0.3500,Ta: 0.5000; Ru: 0.5000
mp-2121,ScAl3,"Al, Sc",2,0.0,Cubic,221,Pm-3m,0.0,False,True,0.1083,Sc: 0.2500; Al: 0.7500
mp-11498,MgTl,"Mg, Tl",2,0.0,Cubic,221,Pm-3m,0.0,False,True,0.1550,Mg: 0.5000; Tl: 0.5000
mp-1020,TaRh3,"Rh, Ta",2,0.0,Cubic,221,Pm-3m,0.0,False,True,0.3377,Ta: 0.2500; Rh: 0.7500
mp-2090,FeCo,"Co, Fe",2,0.0,Cubic,221,Pm-3m,0.0,False,True,0.0250,Fe: 0.5000; Co: 0.5000
mp-22704,YIn,"In, Y",2,0.0,Cubic,221,Pm-3m,0.0,False,True,0.2800,Y: 0.5000; In: 0.5000
mp-21215,InPd,"In, Pd",2,0.005904551666667146,Cubic,221,Pm-3m,0.0,False,True,0.2100,In: 0.5000; Pd: 0.5000
mp-30867,ScRu,"Ru, Sc",2,0.0,Cubic,221,Pm-3m,0.0,False,True,0.4200,Sc: 0.5000; Ru: 0.5000
mp-2426,LiAg,"Ag, Li",2,0.0,Cubic,221,Pm-3m,0.0,False,True,0.4750,Li: 0.5000; Ag: 0.5000
mp-11407,GaPt3,"Ga, Pt",2,0.014427044999997918,Cubic,221,Pm-3m,0.0,False,True,0.2035,Ga: 0.2500; Pt: 0.7500
mp-1197367,SrHg11,"Hg, Sr",2,0.05080219021825072,Cubic,221,Pm-3m,0.0,False,True,0.2902,Sr: 0.0833; Hg: 0.9167
mp-2593,AlNi3,"Al, Ni",2,0.0,Cubic,221,Pm-3m,0.0,False,True,0.1299,Al: 0.2500; Ni: 0.7500
mp-1438,ZrIr3,"Ir, Zr",2,0.0,Cubic,221,Pm-3m,0.0,False,True,0.3767,Zr: 0.2500; Ir: 0.7500
mp-592,TiRu,"Ru, Ti",2,0.0,Cubic,221,Pm-3m,0.0,False,True,0.3300,Ti: 0.5000; Ru: 0.5000
mp-331,ScAl,"Al, Sc",2,0.0,Cubic,221,Pm-3m,0.0,False,True,0.1250,Sc: 0.5000; Al: 0.5000
mp-987,ZnCu,"Cu, Zn",2,0.0,Cubic,221,Pm-3m,0.0,False,True,0.1250,Zn: 0.5000; Cu: 0.5000
mp-922,CoPt3,"Co, Pt",2,0.0,Cubic,221,Pm-3m,0.0,False,True,0.1732,Co: 0.2500; Pt: 0.7500
mp-2808,ZrRh,"Rh, Zr",2,0.08393397999999763,Cubic,221,Pm-3m,0.0,False,True,0.4750,Zr: 0.5000; Rh: 0.5000
mp-1684,ZnAu,"Au, Zn",2,0.0,Cubic,221,Pm-3m,0.0,False,True,0.4450,Zn: 0.5000; Au: 0.5000
mp-11952,KHg11,"Hg, K",2,0.0,Cubic,221,Pm-3m,0.0,False,True,0.3261,K: 0.0833; Hg: 0.9167
mp-11488,LaTl,"La, Tl",2,0.0,Cubic,221,Pm-3m,0.0,False,True,0.2600,La: 0.5000; Tl: 0.5000
mp-542569,AlRu,"Al, Ru",2,0.0,Cubic,221,Pm-3m,0.0,False,True,0.2950,Al: 0.5000; Ru: 0.5000
mp-11522,Ni3Sn,"Ni, Sn",2,0.0,Cubic,221,Pm-3m,0.0,False,True,0.0217,Ni: 0.7500; Sn: 0.2500
mp-11953,RbHg11,"Hg, Rb",2,0.0,Cubic,221,Pm-3m,0.0,False,True,0.3261,Rb: 0.0833; Hg: 0.9167
mp-20997,InNi,"In, Ni",2,0.09218754000000118,Cubic,221,Pm-3m,0.0,False,True,0.0650,In: 0.5000; Ni: 0.5000
mp-11484,ZrIr,"Ir, Zr",2,0.08134236125000172,Cubic,221,Pm-3m,0.0,False,True,0.4350,Zr: 0.5000; Ir: 0.5000
mp-11358,TaCo3,"Co, Ta",2,0.0,Cubic,221,Pm-3m,0.0,False,True,0.1645,Ta: 0.2500; Co: 0.7500
mp-1104,LaMg,"La, Mg",2,0.005696517500002329,Cubic,221,Pm-3m,0.0,False,True,0.1050,La: 0.5000; Mg: 0.5000
mp-649,FePt3,"Fe, Pt",2,0.0,Cubic,221,Pm-3m,0.0,False,True,0.1949,Fe: 0.2500; Pt: 0.7500
mp-30353,AgPt3,"Ag, Pt",2,0.07138850416666287,Cubic,221,Pm-3m,0.0,False,True,0.1516,Ag: 0.2500; Pt: 0.7500
mp-316,MnV,"Mn, V",2,0.0,Cubic,221,Pm-3m,0.0,False,True,0.0400,Mn: 0.5000; V: 0.5000
mp-11573,TiTc,"Tc, Ti",2,0.0,Cubic,221,Pm-3m,0.0,False,True,0.1800,Ti: 0.5000; Tc: 0.5000
mp-1082,VIr3,"Ir, V",2,0.015957168749999084,Cubic,221,Pm-3m,0.0,False,True,0.2468,V: 0.2500; Ir: 0.7500
mp-11388,GaIr,"Ga, Ir",2,0.0,Cubic,221,Pm-3m,0.0,False,True,0.1950,Ga: 0.5000; Ir: 0.5000
mp-20849,Pd3Pb,"Pb, Pd",2,0.0,Cubic,221,Pm-3m,0.0,False,True,0.0563,Pd: 0.7500; Pb: 0.2500
mp-2861,CaTl,"Ca, Tl",2,0.0,Cubic,221,Pm-3m,0.0,False,True,0.3100,Ca: 0.5000; Tl: 0.5000
mp-1408,MgHg,"Hg, Mg",2,0.0,Cubic,221,Pm-3m,0.0,False,True,0.3450,Mg: 0.5000; Hg: 0.5000
mp-19870,GaFe3,"Fe, Ga",2,0.0,Cubic,221,Pm-3m,0.0,False,True,0.0087,Ga: 0.2500; Fe: 0.7500
mp-1073,CaCd,"Ca, Cd",2,0.0,Cubic,221,Pm-3m,0.0,False,True,0.3450,Ca: 0.5000; Cd: 0.5000
mp-191,YRh,"Rh, Y",2,0.0,Cubic,221,Pm-3m,0.0,False,True,0.5300,Y: 0.5000; Rh: 0.5000
mp-22320,GaRu,"Ga, Ru",2,0.0005310187499993901,Cubic,221,Pm-3m,0.0,False,True,0.1950,Ga: 0.5000; Ru: 0.5000
mp-12067,MnAl,"Al, Mn",2,0.04769594000000055,Cubic,221,Pm-3m,0.0,False,True,0.0300,Mn: 0.5000; Al: 0.5000
mp-6938,ZnRh,"Rh, Zn",2,0.0,Cubic,221,Pm-3m,0.0,False,True,0.3150,Zn: 0.5000; Rh: 0.5000
mp-2615,LaZn,"La, Zn",2,0.0,Cubic,221,Pm-3m,0.0,False,True,0.2750,La: 0.5000; Zn: 0.5000
mp-12798,Ni3Pt,"Ni, Pt",2,0.0,Cubic,221,Pm-3m,0.0,False,True,0.1602,Ni: 0.7500; Pt: 0.2500
mp-20291,YPb3,"Pb, Y",2,0.015527627499999141,Cubic,221,Pm-3m,0.0,False,True,0.4806,Y: 0.2500; Pb: 0.7500
mp-1418,FeNi3,"Fe, Ni",2,0.0,Cubic,221,Pm-3m,0.0,False,True,0.0346,Fe: 0.2500; Ni: 0.7500
mp-2540,VTc,"Tc, V",2,0.0,Cubic,221,Pm-3m,0.0,False,True,0.1350,V: 0.5000; Tc: 0.5000
mp-437,MgAu,"Au, Mg",2,0.0,Cubic,221,Pm-3m,0.0,False,True,0.6150,Mg: 0.5000; Au: 0.5000
mp-1201591,LaCd11,"Cd, La",2,0.0,Cubic,221,Pm-3m,0.0,False,True,0.1631,La: 0.0833; Cd: 0.9167
mp-229,ZrRh3,"Rh, Zr",2,0.0,Cubic,221,Pm-3m,0.0,False,True,0.4114,Zr: 0.2500; Rh: 0.7500
mp-23201,BaBi3,"Ba, Bi",2,0.0,Cubic,221,Pm-3m,0.0,False,True,0.4893,Ba: 0.2500; Bi: 0.7500
mp-915,YCd,"Cd, Y",2,0.0,Cubic,221,Pm-3m,0.0,False,True,0.2350,Y: 0.5000; Cd: 0.5000
mp-20555,NaPb3,"Na, Pb",2,0.0,Cubic,221,Pm-3m,0.0,False,True,0.6062,Na: 0.2500; Pb: 0.7500
mp-30858,ZrPt3,"Pt, Zr",2,0.016842564374996982,Cubic,221,Pm-3m,0.0,False,True,0.4114,Zr: 0.2500; Pt: 0.7500
mp-11473,TlHg,"Hg, Tl",2,0.01484476833332593,Cubic,221,Pm-3m,0.0,False,True,0.1900,Tl: 0.5000; Hg: 0.5000
mp-2012,LiHg,"Hg, Li",2,0.0,Cubic,221,Pm-3m,0.0,False,True,0.5100,Li: 0.5000; Hg: 0.5000
mp-11516,NbRu,"Nb, Ru",2,0.024435130000000527,Cubic,221,Pm-3m,0.0,False,True,0.3000,Nb: 0.5000; Ru: 0.5000
mp-2564,SrMg,"Mg, Sr",2,0.016734022499999668,Cubic,221,Pm-3m,0.0,False,True,0.1800,Sr: 0.5000; Mg: 0.5000
mp-11501,MnNi3,"Mn, Ni",2,0.0,Cubic,221,Pm-3m,0.0,False,True,0.1559,Mn: 0.2500; Ni: 0.7500
mp-580357,Cu3Pd,"Cu, Pd",2,0.004421831071429239,Cubic,221,Pm-3m,0.0,False,True,0.1299,Cu: 0.7500; Pd: 0.2500
mp-718,SnPd3,"Pd, Sn",2,0.0,Cubic,221,Pm-3m,0.0,False,True,0.1039,Sn: 0.2500; Pd: 0.7500
mp-2743,LiPd,"Li, Pd",2,0.021507794999999774,Cubic,221,Pm-3m,0.0,False,True,0.6100,Li: 0.5000; Pd: 0.5000
mp-11474,TlHg3,"Hg, Tl",2,0.0,Cubic,221,Pm-3m,0.0,False,True,0.1645,Tl: 0.2500; Hg: 0.7500
mp-2258,Cu3Au,"Au, Cu",2,0.0,Cubic,221,Pm-3m,0.0,False,True,0.2771,Cu: 0.7500; Au: 0.2500
mp-22461,Fe3Sn,"Fe, Sn",2,0.08591179999999898,Cubic,221,Pm-3m,0.0,False,True,0.0563,Fe: 0.7500; Sn: 0.2500
mp-30479,Ca3Pb,"Ca, Pb",2,0.0422716649999999,Cubic,221,Pm-3m,0.0,False,True,0.5759,Ca: 0.7500; Pb: 0.2500
mp-570428,Sc3In,"In, Sc",2,0.01799844249999971,Cubic,221,Pm-3m,0.0,False,True,0.1819,Sc: 0.7500; In: 0.2500
mp-571,TiNi,"Ni, Ti",2,0.048494374999999756,Cubic,221,Pm-3m,0.0,False,True,0.1850,Ti: 0.5000; Ni: 0.5000
mp-213,CaPd,"Ca, Pd",2,0.006872011666665401,Cubic,221,Pm-3m,0.0,False,True,0.6000,Ca: 0.5000; Pd: 0.5000
mp-633,LaSn3,"La, Sn",2,0.0,Cubic,221,Pm-3m,0.0,False,True,0.3724,La: 0.2500; Sn: 0.7500
mp-932,ScGa3,"Ga, Sc",2,0.0,Cubic,221,Pm-3m,0.0,False,True,0.1949,Sc: 0.2500; Ga: 0.7500
mp-636328,TiPd3,"Pd, Ti",2,0.0048098193749979146,Cubic,221,Pm-3m,0.0,False,True,0.2858,Ti: 0.2500; Pd: 0.7500
mp-30475,CaHg11,"Ca, Hg",2,0.08831153194444852,Cubic,221,Pm-3m,0.0,False,True,0.2764,Ca: 0.0833; Hg: 0.9167
mp-526,CaTl3,"Ca, Tl",2,0.0,Cubic,221,Pm-3m,0.0,False,True,0.2685,Ca: 0.2500; Tl: 0.7500
mp-776,LaCd,"Cd, La",2,0.0,Cubic,221,Pm-3m,0.0,False,True,0.2950,La: 0.5000; Cd: 0.5000
mp-1152,TiRh3,"Rh, Ti",2,0.0,Cubic,221,Pm-3m,0.0,False,True,0.3204,Ti: 0.2500; Rh: 0.7500
mp-11274,BePd,"Be, Pd",2,0.0,Cubic,221,Pm-3m,0.0,False,True,0.3150,Be: 0.5000; Pd: 0.5000
mp-11248,LiAu3,"Au, Li",2,0.0,Cubic,221,Pm-3m,0.0,False,True,0.6755,Li: 0.2500; Au: 0.7500
mp-20549,CaPb3,"Ca, Pb",2,0.0,Cubic,221,Pm-3m,0.0,False,True,0.5759,Ca: 0.2500; Pb: 0.7500