material_id,formula,elements,num_elements,energy_above_hull,crystal_system,spacegroup_number,spacegroup_symbol,band_gap,theoretical,is_metal,electronegativity_difference
mp-10598,CuSn,"Cu, Sn",2,0.009223705000000137,Hexagonal,194,P6_3/mmc,0.0,False,True,0.030000000000000027
mp-1094397,Y3Mg,"Mg, Y",2,0.07491996250000188,Hexagonal,194,P6_3/mmc,0.0,True,True,0.038971143170299774
mp-975170,RbHg3,"Hg, Rb",2,0.015551881111107835,Hexagonal,194,P6_3/mmc,0.0,True,True,0.5109549882328188
mp-979980,VPd3,"Pd, V",2,0.0010834437500015781,Hexagonal,194,P6_3/mmc,0.0,True,True,0.24681724007856512
mp-975799,LiZn3,"Li, Zn",2,0.0053559062499966,Hexagonal,194,P6_3/mmc,0.0,True,True,0.2901185102677869
mp-1039119,MgAl3,"Al, Mg",2,0.03433043999999974,Hexagonal,194,P6_3/mmc,0.0,True,True,0.1299038105676658
mp-1187531,TiZn3,"Ti, Zn",2,0.0,Hexagonal,194,P6_3/mmc,0.0,True,True,0.04763139720814407
mp-1094582,LiMg2,"Li, Mg",2,0.03827870666666744,Hexagonal,194,P6_3/mmc,0.0,True,True,0.1555634918610405
mp-1103264,ZrV2,"V, Zr",2,0.03256666083333215,Hexagonal,194,P6_3/mmc,0.0,False,True,0.14142135623730942
mp-864935,MgAu3,"Au, Mg",2,0.007863546999996807,Hexagonal,194,P6_3/mmc,0.0,True,True,0.5326056233274298
mp-1186152,NaHg3,"Hg, Na",2,0.0,Hexagonal,194,P6_3/mmc,0.0,True,True,0.46332359102467463
mp-864938,Mg3Tl,"Mg, Tl",2,0.0,Hexagonal,194,P6_3/mmc,0.0,True,True,0.13423393758658803
mp-1184036,GaAg3,"Ag, Ga",2,0.03324447833333366,Hexagonal,194,P6_3/mmc,0.0,True,True,0.05196152422706627
mp-1079072,Mg3In,"In, Mg",2,0.001179484999999758,Hexagonal,194,P6_3/mmc,0.0,False,True,0.20351596988934306
mp-1185127,La3Hg,"Hg, La",2,0.03549070374999985,Hexagonal,194,P6_3/mmc,0.0,True,True,0.3897114317029974
mp-1201276,Y2Ni7,"Ni, Y",2,0.00852187916666658,Hexagonal,194,P6_3/mmc,0.0,False,True,0.28686039965266885
mp-1095545,ZrTc2,"Tc, Zr",2,0.0,Hexagonal,194,P6_3/mmc,0.0,False,True,0.268700576850888
mp-1039075,Mg3Bi,"Bi, Mg",2,0.061159468124998284,Hexagonal,194,P6_3/mmc,0.0,True,True,0.3074390183434757
mp-30842,ZrPd3,"Pd, Zr",2,0.0,Hexagonal,194,P6_3/mmc,0.0,False,True,0.37672105064623085
mp-999318,NiBi,"Bi, Ni",2,0.0,Hexagonal,194,P6_3/mmc,0.0,False,True,0.05500000000000005
mp-978963,Ti3Be,"Be, Ti",2,0.07425860729166711,Hexagonal,194,P6_3/mmc,0.0,True,True,0.012990381056766592
mp-1183749,CrIr3,"Cr, Ir",2,0.041197177500002624,Hexagonal,194,P6_3/mmc,0.0,True,True,0.23382685902179856
mp-1187241,TaIr3,"Ir, Ta",2,0.01625488250000018,Hexagonal,194,P6_3/mmc,0.0,True,True,0.3031088913245536
mp-1185121,LaZn3,"La, Zn",2,0.07232038375000016,Hexagonal,194,P6_3/mmc,0.0,True,True,0.23815698604072055
mp-581920,La13Cd58,"Cd, La",2,0.0,Hexagonal,194,P6_3/mmc,0.0,False,True,0.2281809247456374
mp-1095124,TaCo3,"Co, Ta",2,0.027305144999999698,Hexagonal,194,P6_3/mmc,0.0,True,True,0.1645448267190433
mp-1185113,La3Cd,"Cd, La",2,0.045807601249997276,Hexagonal,194,P6_3/mmc,0.0,True,True,0.25547749411640935
mp-1187948,Zn3Ni,"Ni, Zn",2,0.03329481631756792,Hexagonal,194,P6_3/mmc,0.0,True,True,0.11258330249197702
mp-1185333,LiAu3,"Au, Li",2,0.005273406249997947,Hexagonal,194,P6_3/mmc,0.0,True,True,0.6754998149518622
mp-1183652,CdHg3,"Cd, Hg",2,0.03991048562500055,Hexagonal,194,P6_3/mmc,0.0,True,True,0.13423393758658803
mp-1188129,ZrPt3,"Pt, Zr",2,0.0,Hexagonal,194,P6_3/mmc,0.0,False,True,0.4113620667976083
mp-1184811,InGa3,"Ga, In",2,0.06566275562500046,Hexagonal,194,P6_3/mmc,0.0,True,True,0.012990381056766592
mp-1188051,Zr3Bi,"Bi, Zr",2,0.09427822562500054,Hexagonal,194,P6_3/mmc,0.0,True,True,0.2987787643056313
mp-1006059,Tl3Bi,"Bi, Tl",2,0.0,Hexagonal,194,P6_3/mmc,0.0,True,True,0.1732050807568877
mp-30726,YHg3,"Hg, Y",2,0.0,Hexagonal,194,P6_3/mmc,0.0,False,True,0.3377499074759311
mp-1186776,SrTl3,"Sr, Tl",2,0.021081438750002235,Hexagonal,194,P6_3/mmc,0.0,True,True,0.290118510267787
mp-1191559,NbRh3,"Nb, Rh",2,0.0,Hexagonal,194,P6_3/mmc,0.0,False,True,0.294448637286709
mp-1101860,ScTc2,"Sc, Tc",2,0.0,Hexagonal,194,P6_3/mmc,0.0,False,True,0.25455844122715704
mp-861910,Sc3Hg,"Hg, Sc",2,0.0,Hexagonal,194,P6_3/mmc,0.0,True,True,0.2771281292110203
mp-977426,NbCo3,"Co, Nb",2,0.0,Hexagonal,194,P6_3/mmc,0.0,True,True,0.12124355652982133
mp-1409,TiNi3,"Ni, Ti",2,0.0,Hexagonal,194,P6_3/mmc,0.0,False,True,0.1602146997001211
mp-1209010,Sc2Be17,"Be, Sc",2,0.0028363492105265564,Hexagonal,194,P6_3/mmc,0.0,True,True,0.06444736304829016
mp-2039,ScMn2,"Mn, Sc",2,0.0,Hexagonal,194,P6_3/mmc,0.0,False,True,0.089566858950296
mp-1183675,CdPd3,"Cd, Pd",2,0.02434241125000014,Hexagonal,194,P6_3/mmc,0.0,True,True,0.22083647796503195
mp-1183250,Ag3Hg,"Ag, Hg",2,0.02121226312500113,Hexagonal,194,P6_3/mmc,0.0,True,True,0.03031088913245538
mp-1184730,HfNi3,"Hf, Ni",2,0.011648468000000634,Hexagonal,194,P6_3/mmc,0.0,True,True,0.2641377481542537
mp-20868,Fe2W,"Fe, W",2,0.0,Hexagonal,194,P6_3/mmc,0.0,False,True,0.24984439601924668
mp-30651,MgGa2,"Ga, Mg",2,0.004995789999999722,Hexagonal,194,P6_3/mmc,0.0,False,True,0.23570226039551584
mp-570923,YRe2,"Re, Y",2,0.0,Hexagonal,194,P6_3/mmc,0.0,False,True,0.3205550741379015
mp-867281,Tc3Pt,"Pt, Tc",2,0.0,Hexagonal,194,P6_3/mmc,0.0,True,True,0.1645448267190433
mp-1187553,Tl3Sn,"Sn, Tl",2,0.06849414749999738,Hexagonal,194,P6_3/mmc,0.0,True,True,0.1472243186433545
mp-1188070,Zn3Sn,"Sn, Zn",2,0.09880820500000098,Triclinic,2,P-1,0.0,True,True,0.13423393758658803
mp-30923,Ga5Rh3,"Ga, Rh",2,0.0035614795535732213,Triclinic,2,P-1,0.0,False,True,0.22753777158968563
mp-640189,TiNi,"Ni, Ti",2,0.01896827916666677,Triclinic,2,P-1,0.0,False,True,0.18499999999999994
mp-27166,Hf3Ni7,"Hf, Ni",2,0.0323682494000046,Triclinic,2,P-1,0.0,False,True,0.2795371173923062
mp-21985,In3Cu7,"Cu, In",2,0.0007918041071448556,Triclinic,2,P-1,0.0,False,True,0.05499090833947002
mp-1213091,In3Ni7,"In, Ni",2,0.02214374300000088,Triclinic,2,P-1,0.0,True,True,0.05957348403442587
mp-1190736,Ca8Al3,"Al, Ca",2,0.0,Triclinic,2,P-1,0.0,False,True,0.27167068056322524
mp-11462,KHg,"Hg, K",2,0.0,Triclinic,2,P-1,0.0,False,True,0.59
mp-1080797,CsHg,"Cs, Hg",2,0.0,Triclinic,2,P-1,0.0,False,True,0.605
mp-1214889,Al11Re4,"Al, Re",2,0.0,Triclinic,2,P-1,0.0,True,True,0.1282428252270754
mp-2856,Mn4Al11,"Al, Mn",2,0.0,Triclinic,2,P-1,0.0,False,True,0.02653299832284322
mp-1211329,La2Sn3,"La, Sn",2,0.0,Triclinic,2,P-1,0.0,True,True,0.4213122357587066
mp-30260,Zr8Ni21,"Ni, Zr",2,0.023987554051720927,Triclinic,2,P-1,0.0,False,True,0.2592296279363143
mp-1221178,Na7Sn12,"Na, Sn",2,0.01774593328947205,Triclinic,2,P-1,0.32260000000000044,True,False,0.4968476806110015
mp-1214894,Al11Cr4,"Al, Cr",2,0.002587619200001612,Triclinic,2,P-1,0.0,True,True,0.022110831935702586
mp-1214901,Al12Fe7,"Al, Fe",2,0.013503348070174503,Triclinic,2,P-1,0.0,True,True,0.10612280556739838
mp-1203833,Ga31Mo6,"Ga, Mo",2,0.0,Triclinic,2,P-1,0.0,False,True,0.12900982686337975
mp-1196402,Mn6Ga29,"Ga, Mn",2,0.007107346642856172,Triclinic,2,P-1,0.0,False,True,0.09798958711859883
mp-1210215,PdPb,"Pb, Pd",2,0.0,Triclinic,2,P-1,0.0,True,True,0.06499999999999995
mp-27165,Hf8Ni21,"Hf, Ni",2,0.04098809458620778,Triclinic,2,P-1,0.0,False,True,0.27263805696750304
mp-1191538,Ca8In3,"Ca, In",2,0.0,Triclinic,2,P-1,0.0,False,True,0.34738218170379614
mp-571056,CsSn,"Cs, Sn",2,0.0,Cubic,218,P-43n,1.1371000000000002,False,False,0.585
mp-1198729,Li22Sn5,"Li, Sn",2,0.010069883333333252,Cubic,216,F-43m,0.0,False,True,0.38067876711361054
mp-568623,Sc44Os7,"Os, Sc",2,0.0,Cubic,216,F-43m,0.0,False,True,0.28905765040821113
mp-650,Be5Pd,"Be, Pd",2,0.0,Cubic,216,F-43m,0.0,False,True,0.23478713763747797
mp-1200338,Y15Ni32,"Ni, Y",2,0.0,Cubic,216,F-43m,0.0,False,True,0.3216413316413316
mp-1071690,Be5Co,"Be, Co",2,0.002452683333333816,Cubic,216,F-43m,0.0,False,True,0.11553017883748906
mp-1018132,AlBi,"Al, Bi",2,0.06617068999999987,Cubic,216,F-43m,0.0,True,True,0.20499999999999996
mp-1213530,Cu41Sn11,"Cu, Sn",2,0.02744226913461567,Cubic,216,F-43m,0.0,True,True,0.024503954517225368
mp-1001833,InBi,"Bi, In",2,0.0,Cubic,216,F-43m,0.0,True,True,0.12
mp-573471,Li17Sn4,"Li, Sn",2,0.0,Cubic,216,F-43m,0.0,False,True,0.38482319172431495
mp-1200708,Sc44Ir7,"Ir, Sc",2,0.0,Cubic,216,F-43m,0.0,False,True,0.28905765040821113
mp-1209947,Sc44Ru7,"Ru, Sc",2,0.0,Cubic,216,F-43m,0.0,True,True,0.28905765040821113
mp-1201907,Ba20Hg103,"Ba, Hg",2,0.0019667218292676036,Cubic,216,F-43m,0.1802999999999999,False,False,0.40959201128066147
mp-1204948,La11Hg45,"Hg, La",2,0.0025207833928604373,Cubic,216,F-43m,0.0,False,True,0.3575667127706837
mp-2439,ZrNi5,"Ni, Zr",2,0.0005126866666671503,Cubic,216,F-43m,0.0,False,True,0.2161532378249796
mp-573651,Li22Pb5,"Li, Pb",2,0.008461113333332992,Cubic,216,F-43m,0.0,False,True,0.5244044240850758
mp-570153,Mg44Rh7,"Mg, Rh",2,0.0,Cubic,216,F-43m,0.0,False,True,0.33379276297138655
mp-1220,Be5Au,"Au, Be",2,0.0,Cubic,216,F-43m,0.0,False,True,0.361497656362466
mp-30603,ZrCu5,"Cu, Zr",2,0.009781456785713516,Cubic,216,F-43m,0.0,False,True,0.21242645786247996
mp-1018126,GaBi,"Bi, Ga",2,0.0023444462500012975,Cubic,216,F-43m,0.0,True,True,0.10499999999999998
mp-574275,Li17Pb4,"Li, Pb",2,0.0,Cubic,216,F-43m,0.0,False,True,0.5301135804365564
mp-568920,CaAu5,"Au, Ca",2,0.0,Cubic,216,F-43m,0.0,False,True,0.5739241142249459
mp-1229052,Al41V4,"Al, V",2,0.027362764888888336,Cubic,216,F-43m,0.0,True,True,0.00569166598882914
mp-1212554,Mg29Pd4,"Mg, Pd",2,0.08545544651515158,Cubic,216,F-43m,0.0,True,True,0.2904725259605884
mp-31499,Mg29Ir4,"Ir, Mg",2,0.001208079531026307,Cubic,216,F-43m,0.0,False,True,0.2904725259605884
mp-569516,HfNi5,"Hf, Ni",2,0.02767773183333233,Cubic,216,F-43m,0.0,False,True,0.22733357771247859
mp-1199736,Y11Cd45,"Cd, Y",2,0.0,Cubic,216,F-43m,0.0,False,True,0.1867292833358015
mp-569273,Mg44Ir7,"Ir, Mg",2,0.0,Cubic,216,F-43m,0.0,False,True,0.30626346293250944
mp-1025010,Be5Fe,"Be, Fe",2,0.04924908499999958,Cubic,216,F-43m,0.0,False,True,0.09689627902499089
mp-1072399,Be5Pt,"Be, Pt",2,0.0,Cubic,216,F-43m,0.09529999999999994,False,False,0.264601377337475
mp-567857,Cd8Ag5,"Ag, Cd",2,0.0,Cubic,217,I-43m,0.0,False,True,0.11676102129852478
mp-1193259,Al8Fe5,"Al, Fe",2,0.046395610769231155,Cubic,217,I-43m,0.0,False,True,0.10703093619031437
mp-1207450,Zn9Fe4,"Fe, Zn",2,0.0,Cubic,217,I-43m,0.0,True,True,0.08307692307692315
mp-30361,Zn8Ag5,"Ag, Zn",2,0.0025969757692312356,Cubic,217,I-43m,0.0,False,True,0.13622119151494558
mp-1193415,Cd8Au5,"Au, Cd",2,0.04904542677350321,Cubic,217,I-43m,0.0,False,True,0.413528617098942
mp-30747,Zn11Ir2,"Ir, Zn",2,0.0,Cubic,217,I-43m,0.0,False,True,0.1984406667617606
mp-1192984,Al5Re24,"Al, Re",2,0.06102760517241279,Cubic,217,I-43m,0.0,False,True,0.10954451150103316
mp-1988,Y5Mg24,"Mg, Y",2,0.017897527068963637,Cubic,217,I-43m,0.0,False,True,0.03399657253480344
mp-1368,Zn8Cu5,"Cu, Zn",2,0.0,Cubic,217,I-43m,0.0,False,True,0.12162606385262997
mp-1094683,Mg16Al13,"Al, Mg",2,0.010447255086207363,Cubic,217,I-43m,0.0,True,True,0.14919522519161338
mp-12662,Re24Mo5,"Mo, Re",2,0.0,Cubic,217,I-43m,0.0,False,True,0.09821232065609883
mp-1192361,Zn11Co2,"Co, Zn",2,0.0,Cubic,217,I-43m,0.0,False,True,0.08298427882764528
mp-11532,Zn11Ni2,"Ni, Zn",2,0.0,Cubic,217,I-43m,0.0,False,True,0.09380831519646861
mp-11558,Sc5Re24,"Re, Sc",2,0.0,Cubic,217,I-43m,0.0,False,True,0.20397943520882042
mp-13448,Zn11Rh2,"Rh, Zn",2,0.0,Cubic,217,I-43m,0.0,False,True,0.22730476374528924
mp-21613,K5Pb24,"K, Pb",2,0.0,Cubic,217,I-43m,0.0,False,True,0.5703869391950351
mp-567490,Hf5Re24,"Hf, Re",2,0.0,Cubic,217,I-43m,0.0,False,True,0.22664381689868937
mp-1193426,Fe25Mo4,"Fe, Mo",2,0.09549232379310268,Cubic,217,I-43m,0.0,False,True,0.11379310344827588
mp-1194114,Mg13Al16,"Al, Mg",2,0.044191618620689876,Cubic,217,I-43m,0.0,False,True,0.14919522519161338
mp-1211140,Li8Ag5,"Ag, Li",2,0.0,Cubic,217,I-43m,0.0,True,True,0.46217904263999393
mp-1214872,Al8V5,"Al, V",2,0.052408436538462055,Cubic,217,I-43m,0.0,True,True,0.0097300851082103
mp-2151,Mg17Al12,"Al, Mg",2,0.0,Cubic,217,I-43m,0.0,False,True,0.1477536916250245
mp-1178900,YFe2,"Fe, Y",2,0.0014878952083323682,Cubic,217,I-43m,0.0,True,True,0.28755675768252936
mp-1374,Zr5Re24,"Re, Zr",2,0.0,Cubic,217,I-43m,0.0,False,True,0.2153116260537549
mp-1194089,CaMn28,"Ca, Mn",2,0.07027932406658621,Cubic,217,I-43m,0.0,False,True,0.10035608421279482
mp-518,Ti5Re24,"Re, Ti",2,0.0,Cubic,217,I-43m,0.0,False,True,0.13598629013921362
mp-23187,La4Bi3,"Bi, La",2,0.009021280714287094,Cubic,220,I-43d,0.0,False,True,0.45528192656096195
mp-21895,Na15Pb4,"Na, Pb",2,0.0,Cubic,220,I-43d,0.0,False,True,0.5707554404937246
mp-30892,Ba4Bi3,"Ba, Bi",2,0.0,Cubic,220,I-43d,0.0,False,True,0.5592049750150947
mp-1197547,Li15Pd4,"Li, Pd",2,0.0,Cubic,220,I-43d,0.0,False,True,0.4973725981445315
mp-567395,Li15Au4,"Au, Li",2,0.0,Cubic,220,I-43d,0.0,False,True,0.6359846336930074
mp-571336,La4Pb3,"La, Pb",2,0.0,Cubic,220,I-43d,0.0,False,True,0.608692140945634
mp-626,La4Rh3,"La, Rh",2,0.0,Cubic,220,I-43d,0.0,False,True,0.5839485579803642
mp-30893,Sr4Bi3,"Bi, Sr",2,0.0,Cubic,220,I-43d,0.0,False,True,0.529512675456771
mp-30794,Na15Sn4,"Na, Sn",2,0.0,Cubic,220,I-43d,0.0,False,True,0.41991293122038303
mp-30424,Zn3Au,"Au, Zn",2,0.0,Cubic,223,Pm-3n,0.0,False,True,0.3853813046840752
mp-2496,Cs4Sn23,"Cs, Sn",2,0.0,Cubic,223,Pm-3n,0.0,False,True,0.41563873202043566
mp-1664,V3Pd,"Pd, V",2,0.0,Cubic,223,Pm-3n,0.0,False,True,0.24681724007856512
mp-1932,Nb3Os,"Nb, Os",2,0.0,Cubic,223,Pm-3n,0.0,False,True,0.2598076211353316
mp-2211,V3Pt,"Pt, V",2,0.0,Cubic,223,Pm-3n,0.0,False,True,0.2814582562299425
mp-839,V3Au,"Au, V",2,0.0,Cubic,223,Pm-3n,0.0,False,True,0.39404155872191965
mp-1458,Nb3Ir,"Ir, Nb",2,0.0,Cubic,223,Pm-3n,0.0,False,True,0.2598076211353316
mp-2663,Nb3Pt,"Nb, Pt",2,0.0,Cubic,223,Pm-3n,0.0,False,True,0.294448637286709
mp-11027,Cs3Hg20,"Cs, Hg",2,0.0023572880150964926,Cubic,223,Pm-3n,0.0,False,True,0.4075052042531282
mp-2339,Ti3Pt,"Pt, Ti",2,0.0,Cubic,223,Pm-3n,0.0,False,True,0.3204293994002422
mp-30788,SnMo3,"Mo, Sn",2,0.05509164124999799,Cubic,223,Pm-3n,0.0,False,True,0.08660254037844395
mp-569249,Ta3Au,"Au, Ta",2,0.0,Cubic,223,Pm-3n,0.0,False,True,0.45033320996790815
mp-1387,AlV3,"Al, V",2,0.0,Cubic,223,Pm-3n,0.0,False,True,0.008660254037844298
mp-2354,Ti3Hg,"Hg, Ti",2,0.0,Cubic,223,Pm-3n,0.0,False,True,0.19918584287042085
mp-544,Ti3Ir,"Ir, Ti",2,0.0,Cubic,223,Pm-3n,0.0,False,True,0.2857883832488648
mp-2670,Nb3Ga,"Ga, Nb",2,0.05837239187500032,Cubic,223,Pm-3n,0.0,False,True,0.09093266739736605
mp-13909,K4Sn23,"K, Sn",2,0.0,Cubic,223,Pm-3n,0.0,False,True,0.4049813286352963
mp-1080569,Tl3Au,"Au, Tl",2,0.06940479416666534,Cubic,223,Pm-3n,0.0,True,True,0.3983716857408417
mp-30871,Ta3Sn,"Sn, Ta",2,0.0,Cubic,223,Pm-3n,0.0,False,True,0.19918584287042085
mp-568014,Nb3Bi,"Bi, Nb",2,0.020126058749999842,Cubic,223,Pm-3n,0.0,False,True,0.1818653347947321
mp-21342,V3Sn,"Sn, V",2,0.0,Cubic,223,Pm-3n,0.0,False,True,0.1428941916244324
mp-1585,V3Co,"Co, V",2,0.0,Cubic,223,Pm-3n,0.0,False,True,0.10825317547305482
mp-1578,V3Rh,"Rh, V",2,0.0,Cubic,223,Pm-3n,0.0,False,True,0.2814582562299425
mp-801,Mo3Os,"Mo, Os",2,0.0017573587499981613,Cubic,223,Pm-3n,0.0,False,True,0.01732050807568879
mp-1326,Nb3Sn,"Nb, Sn",2,0.0,Cubic,223,Pm-3n,0.0,False,True,0.1558845726811989
mp-22060,Nb3In,"In, Nb",2,0.0,Cubic,223,Pm-3n,0.0,False,True,0.07794228634059945
mp-259,AlMo3,"Al, Mo",2,0.0,Cubic,223,Pm-3n,0.0,False,True,0.23815698604072066
mp-7226,V3Ni,"Ni, V",2,0.0,Cubic,223,Pm-3n,0.0,False,True,0.12124355652982143
mp-2006,V3Ir,"Ir, V",2,0.0,Cubic,223,Pm-3n,0.0,False,True,0.24681724007856512
mp-1200220,Al3Ir,"Al, Ir",2,0.09830075218750167,Cubic,223,Pm-3n,0.0,False,True,0.2554774941164094
mp-1630,Zr3Hg,"Hg, Zr",2,0.0,Cubic,223,Pm-3n,0.0,False,True,0.2901185102677869
mp-1545,Nb3Rh,"Nb, Rh",2,0.0,Cubic,223,Pm-3n,0.0,False,True,0.294448637286709
mp-11263,Zr3Au,"Au, Zr",2,0.0,Cubic,223,Pm-3n,0.0,False,True,0.5239453692895853
mp-1079796,Ti3Pd,"Pd, Ti",2,0.00042632083333593584,Cubic,223,Pm-3n,0.0,True,True,0.2857883832488648
mp-1079399,V3Fe,"Fe, V",2,0.0,Cubic,223,Pm-3n,0.0,False,True,0.08660254037844395
mp-11026,Rb3Hg20,"Hg, Rb",2,0.012804760491146427,Cubic,223,Pm-3n,0.0,False,True,0.39740176943693495
mp-2377,GaMo3,"Ga, Mo",2,0.0,Cubic,223,Pm-3n,0.0,False,True,0.1515544456622768
mp-1272,Cr3Ru,"Cr, Ru",2,0.08198951375000263,Cubic,223,Pm-3n,0.0,False,True,0.23382685902179853
mp-1120,Mo3Ir,"Ir, Mo",2,0.06501973499999991,Cubic,223,Pm-3n,0.0,False,True,0.01732050807568879
mp-796,Nb3Al,"Al, Nb",2,0.0409174080000021,Cubic,223,Pm-3n,0.0,False,True,0.004330127018922197
mp-1232,Mo3Pt,"Mo, Pt",2,0.076285793750003,Cubic,223,Pm-3n,0.0,False,True,0.05196152422706617
mp-1206445,ReW3,"Re, W",2,0.04313129187499953,Cubic,223,Pm-3n,0.0,True,True,0.19918584287042088
mp-2752,Nb3Au,"Au, Nb",2,0.003468576250003963,Cubic,223,Pm-3n,0.0,False,True,0.4070319397786861
mp-30876,Zr3Sn,"Sn, Zr",2,0.028289383749999786,Cubic,223,Pm-3n,0.0,False,True,0.27279800219209815
mp-22568,V3Ga,"Ga, V",2,0.0,Cubic,223,Pm-3n,0.0,False,True,0.07794228634059955
mp-1786,Ti3Au,"Au, Ti",2,0.0,Cubic,223,Pm-3n,0.0,False,True,0.4330127018922193
mp-1193170,LaZn13,"La, Zn",2,0.0,Cubic,226,Fm-3c,0.0,False,True,0.14164665725037096
mp-784,KZn13,"K, Zn",2,0.0,Cubic,226,Fm-3c,0.0,False,True,0.2137576827596508
mp-397,KCd13,"Cd, K",2,0.0,Cubic,226,Fm-3c,0.0,False,True,0.22405925783240505
mp-1194443,LaCu13,"Cu, La",2,0.0,Cubic,226,Fm-3c,0.0,False,True,0.20603150145508506
mp-2080,SrBe13,"Be, Sr",2,0.0,Cubic,226,Fm-3c,0.0,False,True,0.15967441362769097
mp-1878,HfBe13,"Be, Hf",2,0.0,Cubic,226,Fm-3c,0.0,False,True,0.06953563174109123
mp-950,NaZn13,"Na, Zn",2,0.0,Cubic,226,Fm-3c,0.0,False,True,0.18542835130957655
mp-672227,CaZn13,"Ca, Zn",2,0.005347061428570443,Cubic,226,Fm-3c,0.0,False,True,0.16740059493225662
mp-672225,BaZn13,"Ba, Zn",2,0.0,Cubic,226,Fm-3c,0.0,False,True,0.1957299263823308
mp-672707,SrZn13,"Sr, Zn",2,0.0,Cubic,226,Fm-3c,0.0,False,True,0.18027756377319945
mp-1193737,LiZn13,"Li, Zn",2,0.0,Cubic,226,Fm-3c,0.0,False,True,0.17255138246863375
mp-1193251,LaBe13,"Be, La",2,0.0,Cubic,226,Fm-3c,0.0,False,True,0.12104350710486249
mp-30425,BaBe13,"Ba, Be",2,0.03836030214285735,Cubic,226,Fm-3c,0.0,False,True,0.17512677623682235
mp-1193534,YBe13,"Be, Y",2,0.0,Cubic,226,Fm-3c,0.0,False,True,0.09013878188659975
mp-855,MgBe13,"Be, Mg",2,0.0005214846428569508,Cubic,226,Fm-3c,0.0,False,True,0.06696023797290265
mp-1713,CsCd13,"Cd, Cs",2,0.0,Cubic,226,Fm-3c,0.0,False,True,0.23178543913697072
mp-30559,LaCo13,"Co, La",2,0.0,Cubic,226,Fm-3c,0.0,False,True,0.2008807139187079
mp-1040,RbCd13,"Cd, Rb",2,0.0,Cubic,226,Fm-3c,0.0,False,True,0.22405925783240505
mp-2504,RbZn13,"Rb, Zn",2,0.0,Cubic,226,Fm-3c,0.0,False,True,0.2137576827596508
mp-642,BaCu13,"Ba, Cu",2,0.0029819446428578367,Cubic,226,Fm-3c,0.0,False,True,0.2601147705870449
mp-30445,ZrBe13,"Be, Zr",2,0.0,Cubic,226,Fm-3c,0.0,False,True,0.061809450436525526
mp-972891,ScBe13,"Be, Sc",2,0.0,Cubic,226,Fm-3c,0.0,False,True,0.05408326913195983
mp-1845,CaBe13,"Be, Ca",2,0.0,Cubic,226,Fm-3c,0.0,False,True,0.14679744478674814
mp-863257,LiGa3,"Ga, Li",2,0.008717875749999493,Cubic,221,Pm-3m,0.0,True,True,0.35940054257054205
mp-11256,ScAu,"Au, Sc",2,0.0,Cubic,221,Pm-3m,0.0,False,True,0.59
mp-11237,ScAg,"Ag, Sc",2,0.0,Cubic,221,Pm-3m,0.0,False,True,0.2849999999999999
mp-23159,SrBi3,"Bi, Sr",2,0.0,Cubic,221,Pm-3m,0.0,False,True,0.4633235910246747
mp-1183995,GaCu3,"Cu, Ga",2,0.005969347499998889,Cubic,221,Pm-3m,0.0,True,True,0.03897114317029968
mp-875,AlOs,"Al, Os",2,0.012587037500004783,Cubic,221,Pm-3m,0.0,False,True,0.29500000000000004
mp-1185037,LaY3,"La, Y",2,0.07751701124999855,Cubic,221,Pm-3m,0.0,True,True,0.05196152422706627
mp-1264,CdAu3,"Au, Cd",2,0.011046036249993563,Cubic,221,Pm-3m,0.0,False,True,0.3680607966083865
mp-2212,ScCo,"Co, Sc",2,0.0,Cubic,221,Pm-3m,0.0,False,True,0.2599999999999999
mp-1027,HfRh3,"Hf, Rh",2,0.0,Cubic,221,Pm-3m,0.0,False,True,0.42435244785437487
mp-1184894,In3Sn,"In, Sn",2,0.06192206999999783,Cubic,221,Pm-3m,0.0,True,True,0.07794228634059945
mp-11546,TiPd,"Pd, Ti",2,0.07338960750000112,Cubic,221,Pm-3m,0.0,False,True,0.33000000000000007
mp-981215,Zn3Co,"Co, Zn",2,0.05560045465909269,Cubic,221,Pm-3m,0.0,True,True,0.09959292143521044