material_id,formula,elements,num_elements,energy_above_hull,crystal_system,spacegroup_number,spacegroup_symbol,band_gap,theoretical,is_metal,electronegativity_difference,atomic_concentrations
mp-1645,Al9Rh2,"Al, Rh",2,0.0,Monoclinic,14,P2_1/c,0.0,False,True,0.2584,Al: 0.8182; Rh: 0.1818
mp-1101783,Bi2Ir,"Bi, Ir",2,0.0,Monoclinic,14,P2_1/c,0.0,False,True,0.0849,Bi: 0.6667; Ir: 0.3333
mp-23217,Bi2Rh,"Bi, Rh",2,0.0,Monoclinic,14,P2_1/c,0.0,False,True,0.1226,Bi: 0.6667; Rh: 0.3333
mp-573425,Y8Co5,"Co, Y",2,0.0012234444230774244,Monoclinic,14,P2_1/c,0.0,False,True,0.3211,Y: 0.6154; Co: 0.3846
mp-571264,Ca5Au4,"Au, Ca",2,0.0,Monoclinic,14,P2_1/c,0.0,False,True,0.7652,Ca: 0.5556; Au: 0.4444
mp-12003,Al9Ir2,"Al, Ir",2,0.0,Monoclinic,14,P2_1/c,0.0,False,True,0.2276,Al: 0.8182; Ir: 0.1818
mp-569049,Al5Mo,"Al, Mo",2,0.0018279855000002954,Trigonal,150,P321,0.0,False,True,0.2050,Al: 0.8333; Mo: 0.1667
mp-1104495,La3Rh2,"La, Rh",2,0.006688662777777132,Trigonal,148,R-3,0.0,False,True,0.5781,La: 0.6000; Rh: 0.4000
mp-1104388,Y3Pd2,"Pd, Y",2,0.012317507583336607,Trigonal,148,R-3,0.0,False,True,0.4801,Y: 0.6000; Pd: 0.4000
mp-12712,Zr3Pd4,"Pd, Zr",2,0.00891687785714268,Trigonal,148,R-3,0.0,False,True,0.4305,Zr: 0.4286; Pd: 0.5714
mp-567653,Ti3Ni4,"Ni, Ti",2,0.007696926964285922,Trigonal,148,R-3,0.0,False,True,0.1831,Ti: 0.4286; Ni: 0.5714
mp-30357,Sr3Ag2,"Ag, Sr",2,0.003260875199998736,Trigonal,148,R-3,0.0,False,True,0.4801,Sr: 0.6000; Ag: 0.4000
mp-17659,Mg23Al30,"Al, Mg",2,0.0007062855660371348,Trigonal,148,R-3,0.0,False,True,0.1487,Mg: 0.4340; Al: 0.5660
mp-30421,Sr3Au2,"Au, Sr",2,0.0,Trigonal,148,R-3,0.0,False,True,0.7789,Sr: 0.6000; Au: 0.4000
mp-1104303,La3Ir2,"Ir, La",2,0.0,Trigonal,148,R-3,0.0,False,True,0.5389,La: 0.6000; Ir: 0.4000
mp-1104856,La3Pt4,"La, Pt",2,0.0,Trigonal,148,R-3,0.0,False,True,0.5839,La: 0.4286; Pt: 0.5714
mp-1104019,Y3Pd4,"Pd, Y",2,0.0,Trigonal,148,R-3,0.0,False,True,0.4850,Y: 0.4286; Pd: 0.5714
mp-12699,Ca3Au4,"Au, Ca",2,0.0,Trigonal,148,R-3,0.0,False,True,0.7621,Ca: 0.4286; Au: 0.5714
mp-1199295,Cd41Ir8,"Cd, Ir",2,0.0,Trigonal,148,R-3,0.0,False,True,0.1885,Cd: 0.8367; Ir: 0.1633
mp-12612,Ba3Ag2,"Ag, Ba",2,0.0,Trigonal,148,R-3,0.0,False,True,0.5095,Ba: 0.6000; Ag: 0.4000
mp-669546,AlPd,"Al, Pd",2,0.007942607692307035,Trigonal,148,R-3,0.0,False,True,0.2950,Al: 0.5000; Pd: 0.5000
mp-1104753,La3Pt2,"La, Pt",2,0.005386151416658436,Trigonal,148,R-3,0.0,False,True,0.5781,La: 0.6000; Pt: 0.4000
mp-1104435,La3Pd4,"La, Pd",2,0.0,Trigonal,148,R-3,0.0,False,True,0.5444,La: 0.4286; Pd: 0.5714
mp-1104164,Ba3Au2,"Au, Ba",2,0.0,Trigonal,148,R-3,0.0,False,True,0.8083,Ba: 0.6000; Au: 0.4000
mp-1104661,Ca3Pd2,"Ca, Pd",2,0.0,Trigonal,148,R-3,0.0,False,True,0.5879,Ca: 0.6000; Pd: 0.4000
mp-1104417,La5Ru2,"La, Ru",2,0.0,Monoclinic,15,C2/c,0.0,False,True,0.4969,La: 0.7143; Ru: 0.2857
mp-574498,Cs3Bi2,"Bi, Cs",2,0.00637911112499534,Monoclinic,15,C2/c,0.0,False,True,0.6026,Cs: 0.6000; Bi: 0.4000
mp-1233,Cu6Sn5,"Cu, Sn",2,0.02306576090908763,Monoclinic,15,C2/c,0.0,False,True,0.0299,Cu: 0.5455; Sn: 0.4545
mp-1104365,Y5Ir2,"Ir, Y",2,0.0,Monoclinic,15,C2/c,0.0,False,True,0.4427,Y: 0.7143; Ir: 0.2857
mp-1104669,Ca5Pd2,"Ca, Pd",2,0.0,Monoclinic,15,C2/c,0.0,False,True,0.5421,Ca: 0.7143; Pd: 0.2857
mp-1104396,La5Ir2,"Ir, La",2,0.0,Monoclinic,15,C2/c,0.0,False,True,0.4969,La: 0.7143; Ir: 0.2857
mp-30367,Ca5Au2,"Au, Ca",2,0.0,Monoclinic,15,C2/c,0.0,False,True,0.6957,Ca: 0.7143; Au: 0.2857
mp-1104898,Y5Ru2,"Ru, Y",2,0.0,Monoclinic,15,C2/c,0.0,False,True,0.4427,Y: 0.7143; Ru: 0.2857
mp-1103570,Ca5Pt2,"Ca, Pt",2,0.0,Monoclinic,15,C2/c,0.0,False,True,0.5782,Ca: 0.7143; Pt: 0.2857
mp-30826,Pd13Pb9,"Pb, Pd",2,0.019548053380688657,Monoclinic,15,C2/c,0.0,False,True,0.0639,Pd: 0.5909; Pb: 0.4091
mp-1078313,Bi2Pt,"Bi, Pt",2,0.05044985180554917,Trigonal,157,P31m,0.0,False,True,0.1226,Bi: 0.6667; Pt: 0.3333
mp-16886,CdAu,"Au, Cd",2,0.0,Trigonal,157,P31m,0.0,False,True,0.4250,Cd: 0.5000; Au: 0.5000
mp-567701,Ba21Al40,"Al, Ba",2,0.0,Trigonal,157,P31m,0.0,False,True,0.3421,Ba: 0.3443; Al: 0.6557
mp-30418,SnAu5,"Au, Sn",2,0.03133991166667016,Trigonal,155,R32,0.0,False,True,0.2162,Sn: 0.1667; Au: 0.8333
mp-569103,Mg3Hg,"Hg, Mg",2,0.026876663750001084,Trigonal,155,R32,0.0,False,True,0.2988,Mg: 0.7500; Hg: 0.2500
mp-19954,Al8Cr5,"Al, Cr",2,0.08061745315384528,Trigonal,160,R3m,0.0,False,True,0.0243,Al: 0.6154; Cr: 0.3846
mp-1194040,Mn5Al8,"Al, Mn",2,0.07759116884615391,Trigonal,160,R3m,0.0,False,True,0.0292,Mn: 0.3846; Al: 0.6154
mp-1557,Mg3Au,"Au, Mg",2,0.00043810999999793765,Trigonal,165,P-3c1,0.0,False,True,0.5326,Mg: 0.7500; Au: 0.2500
mp-31474,Rb2Hg7,"Hg, Rb",2,0.00452349037037425,Trigonal,164,P-3m1,0.0,False,True,0.4906,Rb: 0.2222; Hg: 0.7778
mp-569018,Mg3Bi2,"Bi, Mg",2,0.0,Trigonal,164,P-3m1,0.0,False,True,0.3478,Mg: 0.6000; Bi: 0.4000
mp-10905,Al3Pt2,"Al, Pt",2,0.0,Trigonal,164,P-3m1,0.0,False,True,0.3282,Al: 0.6000; Pt: 0.4000
mp-1017579,In2Au3,"Au, In",2,0.0,Trigonal,164,P-3m1,0.0,False,True,0.3723,In: 0.4000; Au: 0.6000
mp-1079408,Li5In4,"In, Li",2,0.0,Trigonal,164,P-3m1,0.0,False,True,0.3975,Li: 0.5556; In: 0.4444
mp-1057,Al3Ni2,"Al, Ni",2,0.0,Trigonal,164,P-3m1,0.0,False,True,0.1470,Al: 0.6000; Ni: 0.4000
mp-1062935,LaHg2,"Hg, La",2,0.001377663333336443,Trigonal,164,P-3m1,0.0,False,True,0.4243,La: 0.3333; Hg: 0.6667
mp-1069815,In3Pt2,"In, Pt",2,0.00039437725000368573,Trigonal,164,P-3m1,0.0,False,True,0.2449,In: 0.6000; Pt: 0.4000
mp-1297,Tl9Pd13,"Pd, Tl",2,0.0,Trigonal,164,P-3m1,0.0,False,True,0.2852,Tl: 0.4091; Pd: 0.5909
mp-1952,Ba7Al13,"Al, Ba",2,0.024810519750002147,Trigonal,164,P-3m1,0.0,False,True,0.3434,Ba: 0.3500; Al: 0.6500
mp-510437,In3Pd2,"In, Pd",2,0.0,Trigonal,164,P-3m1,0.0,False,True,0.2058,In: 0.6000; Pd: 0.4000
mp-11397,Ga3Ni2,"Ga, Ni",2,0.0,Trigonal,164,P-3m1,0.0,False,True,0.0490,Ga: 0.6000; Ni: 0.4000
mp-21385,In3Ni2,"In, Ni",2,0.0,Trigonal,164,P-3m1,0.0,False,True,0.0637,In: 0.6000; Ni: 0.4000
mp-31473,K2Hg7,"Hg, K",2,0.0,Trigonal,164,P-3m1,0.0,False,True,0.4906,K: 0.2222; Hg: 0.7778
mp-10901,Al3Pd2,"Al, Pd",2,0.0,Trigonal,164,P-3m1,0.0,False,True,0.2890,Al: 0.6000; Pd: 0.4000
mp-30761,Li7Pb2,"Li, Pb",2,0.0,Trigonal,164,P-3m1,0.0,False,True,0.5612,Li: 0.7778; Pb: 0.2222
mp-21400,Ga3Pt2,"Ga, Pt",2,0.003775965500002698,Trigonal,164,P-3m1,0.0,False,True,0.2303,Ga: 0.6000; Pt: 0.4000
mp-10886,Al3Cu2,"Al, Cu",2,0.029272975999999673,Trigonal,164,P-3m1,0.0,False,True,0.1421,Al: 0.6000; Cu: 0.4000
mp-30769,Li13Sn5,"Li, Sn",2,0.0033475494444448195,Trigonal,164,P-3m1,0.0,False,True,0.4389,Li: 0.7222; Sn: 0.2778
mp-569570,K8Tl11,"K, Tl",2,0.0,Trigonal,167,R-3c,0.0,False,True,0.3950,K: 0.4211; Tl: 0.5789
mp-582929,K8In11,"In, K",2,0.0,Trigonal,167,R-3c,0.0,False,True,0.4740,K: 0.4211; In: 0.5789
mp-640712,Rb8In11,"In, Rb",2,0.0,Trigonal,167,R-3c,0.0,False,True,0.4740,Rb: 0.4211; In: 0.5789
mp-574458,Zr21Re25,"Re, Zr",2,0.0,Trigonal,167,R-3c,0.0,False,True,0.2839,Zr: 0.4565; Re: 0.5435
mp-1203605,Hf21Re25,"Hf, Re",2,0.0,Trigonal,167,R-3c,0.0,False,True,0.2989,Hf: 0.4565; Re: 0.5435
mp-16480,Al3Au8,"Al, Au",2,0.001997207272729895,Trigonal,167,R-3c,0.0,False,True,0.4142,Al: 0.2727; Au: 0.7273
mp-1202079,Ti21Mn25,"Mn, Ti",2,0.0,Trigonal,167,R-3c,0.0,False,True,0.0050,Ti: 0.4565; Mn: 0.5435
mp-541787,Na8Hg3,"Hg, Na",2,0.0,Trigonal,167,R-3c,0.0,False,True,0.4765,Na: 0.7273; Hg: 0.2727
mp-570025,Mg21Zn25,"Mg, Zn",2,0.0,Trigonal,167,R-3c,0.0,False,True,0.1694,Mg: 0.4565; Zn: 0.5435
mp-571053,Al5Mo,"Al, Mo",2,0.009455564999999666,Trigonal,167,R-3c,0.0,False,True,0.2050,Al: 0.8333; Mo: 0.1667
mp-542781,Rb8Tl11,"Rb, Tl",2,0.0,Trigonal,167,R-3c,0.0,False,True,0.3950,Rb: 0.4211; Tl: 0.5789
mp-16860,Mg13Ir3,"Ir, Mg",2,0.015399822382246686,Trigonal,167,R-3c,0.0,False,True,0.3474,Mg: 0.8125; Ir: 0.1875
mp-1200207,Cs8Ga11,"Cs, Ga",2,0.0,Trigonal,167,R-3c,0.0,False,True,0.5036,Cs: 0.4211; Ga: 0.5789
mp-568495,Cu10Sn3,"Cu, Sn",2,0.02194780346153813,Hexagonal,173,P6_3,0.0,False,True,0.0253,Cu: 0.7692; Sn: 0.2308
mp-12283,Li5Tl2,"Li, Tl",2,0.0,Trigonal,166,R-3m,0.0,False,True,0.2891,Li: 0.7143; Tl: 0.2857
mp-1194918,Bi4Ir,"Bi, Ir",2,0.0,Trigonal,166,R-3m,0.0,False,True,0.0720,Bi: 0.8000; Ir: 0.2000
mp-1102848,LaIr3,"Ir, La",2,0.008618540000007613,Trigonal,166,R-3m,0.0,False,True,0.4763,La: 0.2500; Ir: 0.7500
mp-30766,Li5Sn2,"Li, Sn",2,0.0,Trigonal,166,R-3m,0.0,False,True,0.4427,Li: 0.7143; Sn: 0.2857
mp-1813,Ba2Mg17,"Ba, Mg",2,0.0,Trigonal,166,R-3m,0.0,False,True,0.1289,Ba: 0.1053; Mg: 0.8947
mp-7285,HfNi3,"Hf, Ni",2,0.002178646916664917,Trigonal,166,R-3m,0.0,False,True,0.2641,Hf: 0.2500; Ni: 0.7500
mp-569594,Fe7Mo6,"Fe, Mo",2,0.00687256875739628,Trigonal,166,R-3m,0.0,False,True,0.1645,Fe: 0.5385; Mo: 0.4615
mp-1061732,MgZr2,"Mg, Zr",2,0.04071996166666736,Trigonal,166,R-3m,0.0,False,True,0.0094,Mg: 0.3333; Zr: 0.6667
mp-1460,RbGa7,"Ga, Rb",2,0.0,Trigonal,166,R-3m,0.0,False,True,0.3274,Rb: 0.1250; Ga: 0.8750
mp-11273,Be3Nb,"Be, Nb",2,0.0,Trigonal,166,R-3m,0.0,False,True,0.0130,Be: 0.7500; Nb: 0.2500
mp-17639,Y2Zn17,"Y, Zn",2,0.0,Trigonal,166,R-3m,0.0,False,True,0.1320,Y: 0.1053; Zn: 0.8947
mp-1105643,Hf2Be17,"Be, Hf",2,0.0019026751754385174,Trigonal,166,R-3m,0.0,False,True,0.0829,Hf: 0.1053; Be: 0.8947
mp-1077925,Na5Sn2,"Na, Sn",2,0.0,Trigonal,166,R-3m,0.0,False,True,0.4653,Na: 0.7143; Sn: 0.2857
mp-7851,TaCo3,"Co, Ta",2,0.022571235833334313,Trigonal,166,R-3m,0.0,False,True,0.1645,Ta: 0.2500; Co: 0.7500
mp-1105040,Ta6Zn7,"Ta, Zn",2,0.0,Trigonal,166,R-3m,0.0,False,True,0.0748,Ta: 0.4615; Zn: 0.5385
mp-9568,Li3Ga2,"Ga, Li",2,0.0,Trigonal,166,R-3m,0.0,False,True,0.4066,Li: 0.6000; Ga: 0.4000
mp-1104956,Ta6Fe7,"Fe, Ta",2,0.0,Trigonal,166,R-3m,0.0,False,True,0.1645,Ta: 0.4615; Fe: 0.5385
mp-2451,YAl3,"Al, Y",2,0.011892777500001728,Trigonal,166,R-3m,0.0,False,True,0.1689,Y: 0.2500; Al: 0.7500
mp-567747,Co7Mo6,"Co, Mo",2,0.011532919358973714,Trigonal,166,R-3m,0.0,False,True,0.1396,Co: 0.5385; Mo: 0.4615
mp-1105569,Y2Fe17,"Fe, Y",2,0.020232452105263476,Trigonal,166,R-3m,0.0,False,True,0.1872,Y: 0.1053; Fe: 0.8947
mp-12648,Ti2Be17,"Be, Ti",2,0.0001682199999999412,Trigonal,166,R-3m,0.0,False,True,0.0092,Ti: 0.1053; Be: 0.8947
mp-1103885,Nb6Fe7,"Fe, Nb",2,0.0017899439053259414,Trigonal,166,R-3m,0.0,False,True,0.1147,Nb: 0.4615; Fe: 0.5385
mp-21446,BaPb3,"Ba, Pb",2,0.0,Trigonal,166,R-3m,0.0,False,True,0.6235,Ba: 0.2500; Pb: 0.7500
mp-16506,Li3Al2,"Al, Li",2,0.0,Trigonal,166,R-3m,0.0,False,True,0.3086,Li: 0.6000; Al: 0.4000
mp-697180,Mg3In,"In, Mg",2,0.0,Trigonal,166,R-3m,0.0,False,True,0.2035,Mg: 0.7500; In: 0.2500
mp-2764,LaNi3,"La, Ni",2,0.0017624329166672226,Trigonal,166,R-3m,0.0,False,True,0.3507,La: 0.2500; Ni: 0.7500
mp-30709,La2Zn17,"La, Zn",2,0.0,Trigonal,166,R-3m,0.0,False,True,0.1688,La: 0.1053; Zn: 0.8947
mp-27505,Fe3Sn2,"Fe, Sn",2,0.0004480230000005747,Trigonal,166,R-3m,0.0,False,True,0.0637,Fe: 0.6000; Sn: 0.4000
mp-570400,Ba7Al10,"Al, Ba",2,0.0,Trigonal,166,R-3m,0.0,False,True,0.3544,Ba: 0.4118; Al: 0.5882
mp-569196,YNi3,"Ni, Y",2,0.0,Trigonal,166,R-3m,0.0,False,True,0.2988,Y: 0.2500; Ni: 0.7500
mp-1104237,Nb7Ni6,"Nb, Ni",2,0.0,Trigonal,166,R-3m,0.0,False,True,0.1545,Nb: 0.5385; Ni: 0.4615
mp-1102392,YFe3,"Fe, Y",2,0.0,Trigonal,166,R-3m,0.0,False,True,0.2641,Y: 0.2500; Fe: 0.7500
mp-30441,Be17Nb2,"Be, Nb",2,0.0,Trigonal,166,R-3m,0.0,False,True,0.0092,Be: 0.8947; Nb: 0.1053
mp-636105,MnGa,"Ga, Mn",2,0.05060490461538514,Trigonal,166,R-3m,0.0,False,True,0.1300,Mn: 0.5000; Ga: 0.5000
mp-2544,Zr2Be17,"Be, Zr",2,0.0,Trigonal,166,R-3m,0.0,False,True,0.0737,Zr: 0.1053; Be: 0.8947
mp-1104372,Nb6Zn7,"Nb, Zn",2,0.0,Trigonal,166,R-3m,0.0,False,True,0.0249,Nb: 0.4615; Zn: 0.5385
mp-569100,LaRh3,"La, Rh",2,0.0037921279166681643,Trigonal,166,R-3m,0.0,False,True,0.5110,La: 0.2500; Rh: 0.7500
mp-7250,Nb6Co7,"Co, Nb",2,0.005622903410255731,Trigonal,166,R-3m,0.0,False,True,0.1396,Nb: 0.4615; Co: 0.5385
mp-1109,Sr5Al9,"Al, Sr",2,0.0,Trigonal,166,R-3m,0.0,False,True,0.3162,Sr: 0.3571; Al: 0.6429
mp-20132,InHg,"Hg, In",2,0.0,Trigonal,166,R-3m,0.0,False,True,0.1100,In: 0.5000; Hg: 0.5000
mp-1189382,La2Co7,"Co, La",2,0.029885577391304707,Trigonal,166,R-3m,0.0,False,True,0.3243,La: 0.2222; Co: 0.7778
mp-1106140,Y2Co17,"Co, Y",2,0.0,Trigonal,166,R-3m,0.0,False,True,0.2025,Y: 0.1053; Co: 0.8947
mp-27587,Li8Pb3,"Li, Pb",2,0.0,Trigonal,166,R-3m,0.0,False,True,0.6012,Li: 0.7273; Pb: 0.2727
mp-21293,Li3In2,"In, Li",2,0.0,Trigonal,166,R-3m,0.0,False,True,0.3919,Li: 0.6000; In: 0.4000
mp-18063,SrSn3,"Sn, Sr",2,0.027413276041663437,Trigonal,166,R-3m,0.0,False,True,0.4373,Sr: 0.2500; Sn: 0.7500
mp-1104334,Nb7Co6,"Co, Nb",2,0.0,Trigonal,166,R-3m,0.0,False,True,0.1396,Nb: 0.5385; Co: 0.4615
mp-1103465,TiBe3,"Be, Ti",2,0.0,Trigonal,166,R-3m,0.0,False,True,0.0130,Ti: 0.2500; Be: 0.7500
mp-644311,CuPt,"Cu, Pt",2,0.0,Trigonal,166,R-3m,0.0,False,True,0.1900,Cu: 0.5000; Pt: 0.5000
mp-1105997,Ca2Ni7,"Ca, Ni",2,0.0,Trigonal,166,R-3m,0.0,False,True,0.3783,Ca: 0.2222; Ni: 0.7778
mp-1104548,Ta7Co6,"Co, Ta",2,0.0014632612820477675,Trigonal,166,R-3m,0.0,False,True,0.1894,Ta: 0.5385; Co: 0.4615
mp-574339,Y2Ni7,"Ni, Y",2,0.0,Trigonal,166,R-3m,0.0,False,True,0.2869,Y: 0.2222; Ni: 0.7778
mp-1188908,La2Ni7,"La, Ni",2,0.0,Trigonal,166,R-3m,0.0,False,True,0.3367,La: 0.2222; Ni: 0.7778
mp-1189402,Ta2Be17,"Be, Ta",2,0.0,Trigonal,166,R-3m,0.0,False,True,0.0215,Ta: 0.1053; Be: 0.8947
mp-1095497,YIr3,"Ir, Y",2,0.015700779999995973,Trigonal,166,R-3m,0.0,False,True,0.4244,Y: 0.2500; Ir: 0.7500
mp-1102167,CaNi3,"Ca, Ni",2,2.671666666742567e-05,Trigonal,166,R-3m,0.0,False,True,0.3940,Ca: 0.2500; Ni: 0.7500
mp-1182452,CrGa,"Cr, Ga",2,0.08224818605769002,Trigonal,166,R-3m,0.0,False,True,0.0750,Cr: 0.5000; Ga: 0.5000
mp-1190346,La2Rh7,"La, Rh",2,0.026713662777778424,Trigonal,166,R-3m,0.0,False,True,0.4906,La: 0.2222; Rh: 0.7778
mp-2588,YCo3,"Co, Y",2,0.05055418807692291,Trigonal,166,R-3m,0.0,False,True,0.2858,Y: 0.2500; Co: 0.7500
mp-1190236,La2Ir7,"Ir, La",2,0.020186647222223186,Trigonal,166,R-3m,0.0,False,True,0.4573,La: 0.2222; Ir: 0.7778
mp-30574,CsGa7,"Cs, Ga",2,0.0,Trigonal,166,R-3m,0.0,False,True,0.3373,Cs: 0.1250; Ga: 0.8750
mp-1473,Fe7W6,"Fe, W",2,0.0026645362499966296,Trigonal,166,R-3m,0.0,False,True,0.2642,Fe: 0.5385; W: 0.4615
mp-571095,Na7Ga13,"Ga, Na",2,0.0,Trigonal,166,R-3m,0.0,False,True,0.4197,Na: 0.3500; Ga: 0.6500
mp-1102049,TaBe3,"Be, Ta",2,0.0,Trigonal,166,R-3m,0.0,False,True,0.0303,Ta: 0.2500; Be: 0.7500
mp-1103826,Ta7Fe6,"Fe, Ta",2,0.0,Trigonal,166,R-3m,0.0,False,True,0.1645,Ta: 0.5385; Fe: 0.4615
mp-1188333,Y2Co7,"Co, Y",2,0.07389264299145282,Trigonal,166,R-3m,0.0,False,True,0.2744,Y: 0.2222; Co: 0.7778
mp-30597,Cu10Sn3,"Cu, Sn",2,0.03160750653846023,Hexagonal,176,P6_3/m,0.0,False,True,0.0253,Cu: 0.7692; Sn: 0.2308
mp-643067,Mg3Sn,"Mg, Sn",2,0.03617427374999904,Hexagonal,176,P6_3/m,0.0,False,True,0.2815,Mg: 0.7500; Sn: 0.2500
mp-510099,In3Au10,"Au, In",2,0.0,Hexagonal,176,P6_3/m,0.0,False,True,0.3202,In: 0.2308; Au: 0.7692
mp-2137,Mg2Ni,"Mg, Ni",2,0.0,Hexagonal,180,P6_222,0.0,False,True,0.2828,Mg: 0.6667; Ni: 0.3333
mp-30047,Sn2Mo,"Mo, Sn",2,0.06053427666666522,Hexagonal,180,P6_222,0.0,False,True,0.0943,Sn: 0.6667; Mo: 0.3333
mp-1079810,HfSn2,"Hf, Sn",2,0.0011263725555537007,Hexagonal,180,P6_222,0.0,False,True,0.3111,Hf: 0.3333; Sn: 0.6667
mp-568607,Al5Mo,"Al, Mo",2,0.0,Hexagonal,182,P6_322,0.0,False,True,0.2050,Al: 0.8333; Mo: 0.1667
mp-30337,Al5W,"Al, W",2,0.0,Hexagonal,182,P6_322,0.0,False,True,0.2795,Al: 0.8333; W: 0.1667
mp-12524,Al2W,"Al, W",2,0.09311756111111436,Hexagonal,181,P6_422,0.0,False,True,0.3536,Al: 0.6667; W: 0.3333
mp-542429,Mg3Rh,"Mg, Rh",2,0.0,Hexagonal,185,P6_3cm,0.0,False,True,0.4200,Mg: 0.7500; Rh: 0.2500
mp-18712,Mg3Pd,"Mg, Pd",2,0.0,Hexagonal,185,P6_3cm,0.0,False,True,0.3854,Mg: 0.7500; Pd: 0.2500
mp-18707,Mg3Pt,"Mg, Pt",2,0.0,Hexagonal,185,P6_3cm,0.0,False,True,0.4200,Mg: 0.7500; Pt: 0.2500
mp-17783,Mg3Au,"Au, Mg",2,0.0,Hexagonal,185,P6_3cm,0.0,False,True,0.5326,Mg: 0.7500; Au: 0.2500
mp-568419,Mg3Ir,"Ir, Mg",2,0.0,Hexagonal,185,P6_3cm,0.0,False,True,0.3854,Mg: 0.7500; Ir: 0.2500
mp-30370,Cd3Au,"Au, Cd",2,0.0,Hexagonal,185,P6_3cm,0.0,False,True,0.3681,Cd: 0.7500; Au: 0.2500
mp-1105925,La7Pd3,"La, Pd",2,0.0,Hexagonal,186,P6_3mc,0.0,False,True,0.5041,La: 0.7000; Pd: 0.3000
mp-1106092,Sr7Ag3,"Ag, Sr",2,0.013513263899998407,Hexagonal,186,P6_3mc,0.0,False,True,0.4491,Sr: 0.7000; Ag: 0.3000
mp-1189501,La7Pt3,"La, Pt",2,0.0,Hexagonal,186,P6_3mc,0.0,False,True,0.5407,La: 0.7000; Pt: 0.3000
mp-573855,La7Ni3,"La, Ni",2,0.0,Hexagonal,186,P6_3mc,0.0,False,True,0.3712,La: 0.7000; Ni: 0.3000
mp-1188890,Y7Pt3,"Pt, Y",2,0.017898522250000326,Hexagonal,186,P6_3mc,0.0,False,True,0.4858,Y: 0.7000; Pt: 0.3000
mp-570557,NbCo3,"Co, Nb",2,0.0660422908333329,Hexagonal,186,P6_3mc,0.0,False,True,0.1212,Nb: 0.2500; Co: 0.7500
mp-1189031,La7Rh3,"La, Rh",2,0.0,Hexagonal,186,P6_3mc,0.0,False,True,0.5407,La: 0.7000; Rh: 0.3000
mp-1189474,Y7Rh3,"Rh, Y",2,0.0,Hexagonal,186,P6_3mc,0.0,False,True,0.4858,Y: 0.7000; Rh: 0.3000
mp-1105837,La7Ir3,"Ir, La",2,0.0,Hexagonal,186,P6_3mc,0.0,False,True,0.5041,La: 0.7000; Ir: 0.3000
mp-30422,Sr7Au3,"Au, Sr",2,0.0,Hexagonal,186,P6_3mc,0.0,False,True,0.7286,Sr: 0.7000; Au: 0.3000
mp-1200130,Rb5Tl9,"Rb, Tl",2,0.0,Hexagonal,189,P-62m,0.0,False,True,0.3833,Rb: 0.3571; Tl: 0.6429
mp-568683,La16Al13,"Al, La",2,0.00441335133620413,Hexagonal,189,P-62m,0.0,False,True,0.2536,La: 0.5517; Al: 0.4483
mp-31326,Mg2In,"In, Mg",2,0.015275971481479633,Hexagonal,189,P-62m,0.0,False,True,0.2216,Mg: 0.6667; In: 0.3333
mp-567244,Mg2Tl,"Mg, Tl",2,0.014480268611110514,Hexagonal,189,P-62m,0.0,False,True,0.1461,Mg: 0.6667; Tl: 0.3333
mp-578,GaAg2,"Ag, Ga",2,0.0,Hexagonal,189,P-62m,0.0,False,True,0.0566,Ga: 0.3333; Ag: 0.6667
mp-571598,Ga2Au7,"Au, Ga",2,0.017660370925923985,Hexagonal,189,P-62m,0.0,False,True,0.3035,Ga: 0.2222; Au: 0.7778
mp-30650,Mg2Ga,"Ga, Mg",2,0.0,Hexagonal,190,P-62c,0.0,False,True,0.2357,Mg: 0.6667; Ga: 0.3333
mp-571353,BaSn5,"Ba, Sn",2,0.026217794166670583,Hexagonal,191,P6/mmm,0.0,False,True,0.3988,Ba: 0.1667; Sn: 0.8333
mp-11472,SrHg2,"Hg, Sr",2,0.0031802333333292854,Hexagonal,191,P6/mmm,0.0,False,True,0.4950,Sr: 0.3333; Hg: 0.6667
mp-11287,CaHg2,"Ca, Hg",2,0.0,Hexagonal,191,P6/mmm,0.0,False,True,0.4714,Ca: 0.3333; Hg: 0.6667
mp-570832,SrPt5,"Pt, Sr",2,0.0,Hexagonal,191,P6/mmm,0.0,False,True,0.4957,Sr: 0.1667; Pt: 0.8333
mp-11280,TiBe12,"Be, Ti",2,0.08558260846153765,Hexagonal,191,P6/mmm,0.0,False,True,0.0080,Ti: 0.0769; Be: 0.9231
mp-11385,YFe5,"Fe, Y",2,0.0,Hexagonal,191,P6/mmm,0.0,False,True,0.2273,Y: 0.1667; Fe: 0.8333
mp-30363,BaAu2,"Au, Ba",2,0.0,Hexagonal,191,P6/mmm,0.0,False,True,0.7778,Ba: 0.3333; Au: 0.6667
mp-20536,CoSn,"Co, Sn",2,0.0,Hexagonal,191,P6/mmm,0.0,False,True,0.0400,Co: 0.5000; Sn: 0.5000
mp-680434,Na26Cd141,"Cd, Na",2,0.0,Hexagonal,191,P6/mmm,0.0,False,True,0.2755,Na: 0.1557; Cd: 0.8443
mp-1882,CaCu5,"Ca, Cu",2,0.0,Hexagonal,191,P6/mmm,0.0,False,True,0.3354,Ca: 0.1667; Cu: 0.8333
mp-30481,CaPt5,"Ca, Pt",2,0.0,Hexagonal,191,P6/mmm,0.0,False,True,0.4770,Ca: 0.1667; Pt: 0.8333
mp-1731,LaCo5,"Co, La",2,0.03345996532608808,Hexagonal,191,P6/mmm,0.0,False,True,0.2907,La: 0.1667; Co: 0.8333
mp-30725,YHg2,"Hg, Y",2,0.0,Hexagonal,191,P6/mmm,0.0,False,True,0.3677,Y: 0.3333; Hg: 0.6667
mp-2152,YNi5,"Ni, Y",2,0.0,Hexagonal,191,P6/mmm,0.0,False,True,0.2571,Y: 0.1667; Ni: 0.8333
mp-2726,SrCu5,"Cu, Sr",2,0.0,Hexagonal,191,P6/mmm,0.0,False,True,0.3540,Sr: 0.1667; Cu: 0.8333
mp-1814,BaAg5,"Ag, Ba",2,0.0,Hexagonal,191,P6/mmm,0.0,False,True,0.3876,Ba: 0.1667; Ag: 0.8333
mp-2613,LaCu5,"Cu, La",2,0.0,Hexagonal,191,P6/mmm,0.0,False,True,0.2981,La: 0.1667; Cu: 0.8333
mp-2317,LaNi5,"La, Ni",2,0.0,Hexagonal,191,P6/mmm,0.0,False,True,0.3019,La: 0.1667; Ni: 0.8333
mp-11283,ZrBe5,"Be, Zr",2,0.0,Hexagonal,191,P6/mmm,0.0,False,True,0.0894,Zr: 0.1667; Be: 0.8333
mp-182,SrGa2,"Ga, Sr",2,0.0,Hexagonal,191,P6/mmm,0.0,False,True,0.4054,Sr: 0.3333; Ga: 0.6667
mp-2424,LaZn5,"La, Zn",2,0.003247978166665888,Hexagonal,191,P6/mmm,0.0,False,True,0.2050,La: 0.1667; Zn: 0.8333
mp-1252,ZrBe2,"Be, Zr",2,0.028948296666665208,Hexagonal,191,P6/mmm,0.0,False,True,0.1131,Zr: 0.3333; Be: 0.6667