material_id,formula,elements,num_elements,energy_above_hull,crystal_system,spacegroup_number,spacegroup_symbol,band_gap,theoretical,is_metal,electronegativity_difference
mp-29551,Na3Hg,"Hg, Na",2,0.01889395145833639,Cubic,225,Fm-3m,0.0,True,True,0.46332359102467463
mp-1094614,MgGa3,"Ga, Mg",2,0.08062214468750062,Cubic,225,Fm-3m,0.0,True,True,0.21650635094610965
mp-22926,LaBi,"Bi, La",2,0.0,Cubic,225,Fm-3m,0.0,False,True,0.45999999999999996
mp-1184994,KHg3,"Hg, K",2,0.034403511666660336,Cubic,225,Fm-3m,0.0,True,True,0.5109549882328188
mp-30782,Sr6Mg23,"Mg, Sr",2,0.0022167174137930346,Cubic,225,Fm-3m,0.0,False,True,0.145829049821016
mp-571059,YCd3,"Cd, Y",2,0.020065075000001542,Cubic,225,Fm-3m,0.0,False,True,0.20351596988934306
mp-1186218,Nb3Os,"Nb, Os",2,0.01013321250000132,Cubic,225,Fm-3m,0.0,True,True,0.2598076211353316
mp-867343,Li3Cd,"Cd, Li",2,0.00600666750000034,Cubic,225,Fm-3m,0.0,True,True,0.3074390183434757
mp-1063245,Sr2Rh,"Rh, Sr",2,0.043910936666666345,Cubic,225,Fm-3m,0.0,False,True,0.626968012652072
mp-1187811,YAg3,"Ag, Y",2,0.059440931413043074,Cubic,225,Fm-3m,0.0,True,True,0.3074390183434757
mp-1185090,K3Rb,"K, Rb",2,0.03211973518750044,Cubic,225,Fm-3m,0.0,True,True,0.0
mp-1186017,Na3Ag,"Ag, Na",2,0.07943195812500115,Cubic,225,Fm-3m,0.0,True,True,0.43301270189221924
mp-1187204,Ta3Pt,"Pt, Ta",2,0.05386375541666055,Cubic,225,Fm-3m,0.0,True,True,0.337749907475931
mp-1187203,Ta3Re,"Re, Ta",2,0.0,Cubic,225,Fm-3m,0.0,True,True,0.1732050807568877
mp-1227285,BiPd3,"Bi, Pd",2,0.024378722499996286,Cubic,225,Fm-3m,0.0,True,True,0.07794228634059955
mp-635413,Cs3Bi,"Bi, Cs",2,0.0,Cubic,225,Fm-3m,0.17899999999999983,False,False,0.5326056233274298
mp-978882,SnBi3,"Bi, Sn",2,0.06973069374999996,Cubic,225,Fm-3m,0.0,True,True,0.025980762113533184
mp-1184226,Ga3Ag,"Ag, Ga",2,0.07294466239583386,Cubic,225,Fm-3m,0.0,True,True,0.05196152422706627
mp-1187513,Tl3Cd,"Cd, Tl",2,0.08345047500000646,Cubic,225,Fm-3m,0.0,True,True,0.030310889132455283
mp-1062676,K2Pt,"K, Pt",2,0.0,Cubic,225,Fm-3m,1.3146,False,False,0.6882506003549062
mp-20581,Ca3In,"Ca, In",2,0.08165825583333408,Cubic,225,Fm-3m,0.0,False,True,0.3377499074759311
mp-974883,Rb3Na,"Na, Rb",2,0.04730255903017211,Cubic,225,Fm-3m,0.0,True,True,0.04763139720814417
mp-972048,Zn6Mo,"Mo, Zn",2,0.0,Cubic,225,Fm-3m,0.0,False,True,0.1784628241170602
mp-975929,Li3Ca,"Ca, Li",2,0.061178348958333295,Cubic,225,Fm-3m,0.0,True,True,0.008660254037844395
mp-1186047,Na3In,"In, Na",2,0.04987562500000031,Cubic,225,Fm-3m,0.0,True,True,0.3680607966083864
mp-1094464,Mg3Zn,"Mg, Zn",2,0.08568004365000026,Cubic,225,Fm-3m,0.0,True,True,0.1472243186433545
mp-864984,MnV3,"Mn, V",2,0.01897389500000024,Cubic,225,Fm-3m,0.0,True,True,0.034641016151377484
mp-11523,Ni3Sn,"Ni, Sn",2,0.04926727750000026,Cubic,225,Fm-3m,0.0,False,True,0.021650635094610987
mp-974990,Rb3Hg,"Hg, Rb",2,0.06862368402343755,Cubic,225,Fm-3m,0.0,True,True,0.5109549882328188
mp-1079116,Mg7Sc,"Mg, Sc",2,0.05034828250000034,Cubic,225,Fm-3m,0.0,True,True,0.016535945694153707
mp-12608,CuPt7,"Cu, Pt",2,0.0,Cubic,225,Fm-3m,0.0,False,True,0.12567318727556803
mp-2776,Ga2Au,"Au, Ga",2,0.0,Cubic,225,Fm-3m,0.0,False,True,0.34412530017745313
mp-22154,In2Au,"Au, In",2,0.0,Cubic,225,Fm-3m,0.0,False,True,0.3582674358011841
mp-1185024,LaAg3,"Ag, La",2,0.0754518913043496,Cubic,225,Fm-3m,0.0,True,True,0.35940054257054194
mp-1193087,Zr11Os4,"Os, Zr",2,0.0,Cubic,225,Fm-3m,0.0,False,True,0.3847284756812264
mp-1079382,YMg7,"Mg, Y",2,0.08158782374999918,Cubic,225,Fm-3m,0.0,True,True,0.02976470224947667
mp-979289,TaW3,"Ta, W",2,0.0,Cubic,225,Fm-3m,0.0,True,True,0.3723909236273086
mp-7396,Li3Tl,"Li, Tl",2,0.0,Cubic,225,Fm-3m,0.0,False,True,0.2771281292110204
mp-1206346,MgPt7,"Mg, Pt",2,0.0,Cubic,225,Fm-3m,0.0,True,True,0.32079734646658153
mp-1186129,NaCa3,"Ca, Na",2,0.08738552836206903,Cubic,225,Fm-3m,0.0,True,True,0.030310889132455332
mp-12777,AlCu3,"Al, Cu",2,0.0210512025000007,Cubic,225,Fm-3m,0.0,False,True,0.12557368354874351
mp-2647,Al2Au,"Al, Au",2,0.0,Cubic,225,Fm-3m,0.0,False,True,0.4384062043356594
mp-2343,Mg2Sn,"Mg, Sn",2,0.0,Cubic,225,Fm-3m,0.0,False,True,0.30641293851417056
mp-1094734,CaMg3,"Ca, Mg",2,0.037659597499999364,Cubic,225,Fm-3m,0.0,True,True,0.13423393758658803
mp-999395,Nb3Fe,"Fe, Nb",2,0.08483668403846245,Cubic,225,Fm-3m,0.0,True,True,0.09959292143521044
mp-976256,Li3Mg,"Li, Mg",2,0.00999580541666667,Cubic,225,Fm-3m,0.0,True,True,0.1428941916244324
mp-973100,ScCu3,"Cu, Sc",2,0.04917266500000039,Cubic,225,Fm-3m,0.0,True,True,0.23382685902179834
mp-1009730,Ca2Sn,"Ca, Sn",2,0.010972289166666371,Cubic,225,Fm-3m,0.6619999999999999,True,False,0.4525483399593904
mp-1062620,Sr2Ir,"Ir, Sr",2,0.06671562249999496,Cubic,225,Fm-3m,0.0,False,True,0.5892556509887897
mp-570632,ScBi,"Bi, Sc",2,0.0,Cubic,225,Fm-3m,0.0,False,True,0.32999999999999996
mp-12305,Sc11Os4,"Os, Sc",2,0.0,Cubic,225,Fm-3m,0.0,False,True,0.37146197651980484
mp-12304,Sc11Ir4,"Ir, Sc",2,0.0,Cubic,225,Fm-3m,0.0,False,True,0.37146197651980484
mp-1039230,Ca3Mg,"Ca, Mg",2,0.06393943312499961,Cubic,225,Fm-3m,0.0,True,True,0.13423393758658803
mp-1183462,CaAu3,"Au, Ca",2,0.06235361499999925,Cubic,225,Fm-3m,0.0,True,True,0.6668395609140177
mp-1183328,BaMg3,"Ba, Mg",2,0.0691160455113633,Cubic,225,Fm-3m,0.0,True,True,0.18186533479473213
mp-1185265,Li3Sn,"Li, Sn",2,0.0,Cubic,225,Fm-3m,0.0,True,True,0.4243524478543749
mp-1038832,Mg3Cd,"Cd, Mg",2,0.04711885812499972,Cubic,225,Fm-3m,0.0,True,True,0.1645448267190433
mp-1079855,LiPd7,"Li, Pd",2,0.0,Cubic,225,Fm-3m,0.0,False,True,0.40347707493735013
mp-1187697,V3Fe,"Fe, V",2,0.025741546249999914,Cubic,225,Fm-3m,0.0,True,True,0.08660254037844395
mp-1355,Y6Mn23,"Mn, Y",2,0.0978609220785458,Cubic,225,Fm-3m,0.0,False,True,0.133676629002598
mp-1185982,MgTl3,"Mg, Tl",2,0.08474601583332886,Cubic,225,Fm-3m,0.0,True,True,0.13423393758658803
mp-862559,LaCd3,"Cd, La",2,0.0,Cubic,225,Fm-3m,0.0,True,True,0.25547749411640935
mp-977390,Ta3Ru,"Ru, Ta",2,0.0,Cubic,225,Fm-3m,0.0,True,True,0.3031088913245536
mp-22095,Ga2Pt,"Ga, Pt",2,0.0,Cubic,225,Fm-3m,0.0,False,True,0.22156012477178477
mp-973149,Mn3Al,"Al, Mn",2,0.06899594353448268,Cubic,225,Fm-3m,0.0,True,True,0.025980762113533184
mp-975028,Rb3Cd,"Cd, Rb",2,0.07145298548076928,Cubic,225,Fm-3m,0.0,True,True,0.37672105064623085
mp-1184893,K3Na,"K, Na",2,0.027303699687500682,Cubic,225,Fm-3m,0.0,True,True,0.04763139720814417
mp-1186024,Na3Cd,"Cd, Na",2,0.0,Cubic,225,Fm-3m,0.0,True,True,0.32908965343808666
mp-1183465,Bi3Pb,"Bi, Pb",2,0.057090392500000586,Cubic,225,Fm-3m,0.0,True,True,0.13423393758658803
mp-1183330,Ba3Sr,"Ba, Sr",2,0.0035189374999995415,Cubic,225,Fm-3m,0.0,True,True,0.025980762113533135
mp-1194271,Zr6Ni23,"Ni, Zr",2,0.042554500000000495,Cubic,225,Fm-3m,0.0,False,True,0.23494680248941455
mp-2018,AlFe3,"Al, Fe",2,0.035353807499999945,Cubic,225,Fm-3m,0.0,False,True,0.09526279441628824
mp-1094603,LiMg3,"Li, Mg",2,0.014990625624999865,Cubic,225,Fm-3m,0.0,True,True,0.1428941916244324
mp-977434,Nb3Ru,"Nb, Ru",2,0.0,Cubic,225,Fm-3m,0.0,True,True,0.2598076211353316
mp-1502,Al2Pt,"Al, Pt",2,0.0,Cubic,225,Fm-3m,0.0,False,True,0.31584102892999105
mp-1184344,Ga3Pb,"Ga, Pb",2,0.09295059437500086,Cubic,225,Fm-3m,0.0,True,True,0.22516660498395405
mp-1186080,Na3Sn,"Na, Sn",2,0.04590408762499898,Cubic,225,Fm-3m,0.0,True,True,0.4460030829489859
mp-977062,Na3Ca,"Ca, Na",2,0.08530955508620686,Cubic,225,Fm-3m,0.0,True,True,0.030310889132455332
mp-1094230,MgSn3,"Mg, Sn",2,0.09069722937500035,Cubic,225,Fm-3m,0.0,True,True,0.2814582562299425
mp-1186973,ScAg3,"Ag, Sc",2,0.06851194250000248,Cubic,225,Fm-3m,0.0,True,True,0.24681724007856495
mp-975198,RbTl3,"Rb, Tl",2,0.0735666704999991,Cubic,225,Fm-3m,0.0,True,True,0.3464101615137755
mp-973940,LiCd3,"Cd, Li",2,0.015826024999999078,Cubic,225,Fm-3m,0.0,True,True,0.3074390183434757
mp-1187253,TaTi3,"Ta, Ti",2,0.09749539499999926,Cubic,225,Fm-3m,0.0,True,True,0.01732050807568879
mp-865382,V3Ru,"Ru, V",2,0.0,Cubic,225,Fm-3m,0.0,True,True,0.24681724007856512
mp-1186074,Na3Pd,"Na, Pd",2,0.01798699250000091,Cubic,225,Fm-3m,0.0,True,True,0.5499261314031186
mp-1187702,VW3,"V, W",2,0.0,Cubic,225,Fm-3m,0.0,True,True,0.31609927238132013
mp-23304,Rb3Bi,"Bi, Rb",2,0.013430248749997986,Cubic,225,Fm-3m,0.0,False,True,0.5196152422706632
mp-1185107,KRb3,"K, Rb",2,0.023103715062500862,Cubic,225,Fm-3m,0.0,True,True,0.0
mp-971944,SrMg3,"Mg, Sr",2,0.06553898124999957,Cubic,225,Fm-3m,0.0,True,True,0.15588457268119899
mp-982873,Na3Tl,"Na, Tl",2,0.018011489062498498,Cubic,225,Fm-3m,0.0,True,True,0.29877876430563133
mp-865376,YMg3,"Mg, Y",2,0.0,Cubic,225,Fm-3m,0.0,True,True,0.038971143170299774
mp-1039249,MgCd3,"Cd, Mg",2,0.07606669291666779,Cubic,225,Fm-3m,0.0,True,True,0.1645448267190433
mp-1183674,CdIn3,"Cd, In",2,0.06416026750000015,Cubic,225,Fm-3m,0.0,True,True,0.038971143170299774
mp-1183404,Be3Cu,"Be, Cu",2,0.06306997875000064,Cubic,225,Fm-3m,0.0,True,True,0.14289419162443232
mp-1215897,Zn53Co7,"Co, Zn",2,0.0,Monoclinic,3,P2,0.0,True,True,0.07383521442298985
mp-1198336,Al13Co4,"Al, Co",2,0.012247626556373348,Orthorhombic,31,Pmn2_1,0.0,False,True,0.11452927580885604
mp-1218177,Ta3Os2,"Os, Ta",2,0.0,Orthorhombic,35,Cmm2,0.0,True,True,0.34292856398964505
mp-1229280,Cd5Ni,"Cd, Ni",2,0.05052089243055846,Orthorhombic,35,Cmm2,0.0,True,True,0.08198915917499228
mp-1220934,Nb3Os2,"Nb, Os",2,0.0,Orthorhombic,35,Cmm2,0.0,True,True,0.2939387691339814
mp-1221719,Mo3Os2,"Mo, Os",2,0.014078369666670199,Orthorhombic,35,Cmm2,0.0,True,True,0.01959591794226544
mp-1221651,Mo3Ru2,"Mo, Ru",2,0.06753384466667,Orthorhombic,35,Cmm2,0.0,True,True,0.01959591794226544
mp-1219644,Ru2W3,"Ru, W",2,0.082516478666669,Orthorhombic,35,Cmm2,0.0,True,True,0.07838367176906154
mp-1215714,Zn2Pd,"Pd, Zn",2,0.0,Orthorhombic,35,Cmm2,0.0,True,True,0.25927248643506756
mp-1219297,Re3Mo2,"Mo, Re",2,0.07697495949999933,Orthorhombic,35,Cmm2,0.0,True,True,0.12737346662472537
mp-1226444,Cr3Co2,"Co, Cr",2,0.07854682700000204,Orthorhombic,35,Cmm2,0.0,True,True,0.10777754868245983
mp-978274,MgCd,"Cd, Mg",2,0.029356295833332213,Orthorhombic,38,Amm2,0.0,True,True,0.18999999999999995
mp-1185687,MgSc5,"Mg, Sc",2,0.03306433666666653,Orthorhombic,38,Amm2,0.0,True,True,0.018633899812498265
mp-1094594,LiMg,"Li, Mg",2,0.023826249166666535,Orthorhombic,38,Amm2,0.0,True,True,0.16500000000000004
mp-1185830,Mg5In,"In, Mg",2,0.045421646666665705,Orthorhombic,38,Amm2,0.0,True,True,0.1751586582374835
mp-1094475,MgZn,"Mg, Zn",2,0.04470156896666677,Orthorhombic,38,Amm2,0.0,True,True,0.16999999999999993
mp-1094434,Mg5Zn,"Mg, Zn",2,0.030903457433334003,Orthorhombic,38,Amm2,0.0,True,True,0.12671051872498804
mp-1080522,YSn3,"Sn, Y",2,0.08341129124999913,Orthorhombic,38,Amm2,0.0,False,True,0.3204293994002423
mp-1038760,Ca2Mg,"Ca, Mg",2,0.0915307024999994,Orthorhombic,38,Amm2,0.4273999999999998,True,False,0.14613540144521983
mp-1094385,MgTi,"Mg, Ti",2,0.09030117749999977,Orthorhombic,38,Amm2,0.0,True,True,0.11499999999999999
mp-1094482,YMg5,"Mg, Y",2,0.05801325666666557,Orthorhombic,38,Amm2,0.0,True,True,0.033541019662496875
mp-1038987,CaMg5,"Ca, Mg",2,0.0903809224999994,Orthorhombic,38,Amm2,0.0,True,True,0.11553017883748914
mp-1094251,MgSn,"Mg, Sn",2,0.08934356708333313,Orthorhombic,38,Amm2,0.0,True,True,0.32499999999999996
mp-1094465,Mg2Zn,"Mg, Zn",2,0.07719243986666702,Orthorhombic,38,Amm2,0.0,True,True,0.1602775370689507
mp-1094205,Mg5Sn,"Mg, Sn",2,0.07805667083333345,Orthorhombic,38,Amm2,0.0,True,True,0.24224069756247718
mp-1185698,MgBi5,"Bi, Mg",2,0.08392008333333267,Orthorhombic,38,Amm2,0.0,True,True,0.2646013773374751
mp-1094484,MgZn5,"Mg, Zn",2,0.044126105952380534,Orthorhombic,38,Amm2,0.0,True,True,0.12671051872498804
mp-1094714,Mg5Bi,"Bi, Mg",2,0.07186090208333251,Orthorhombic,38,Amm2,0.0,True,True,0.2646013773374751
mp-1094648,MgGa,"Ga, Mg",2,0.08298655833333335,Orthorhombic,38,Amm2,0.0,True,True,0.25
mp-1094637,MgGa,"Ga, Mg",2,0.07594915999999996,Orthorhombic,38,Amm2,0.0,True,True,0.25
mp-1038944,MgCd,"Cd, Mg",2,0.06002784666666727,Orthorhombic,38,Amm2,0.7843,True,False,0.18999999999999995
mp-1038799,MgBi,"Bi, Mg",2,0.08457808499999775,Orthorhombic,38,Amm2,0.2695999999999996,True,False,0.355
mp-1094562,Li2Mg,"Li, Mg",2,0.011386544444444535,Orthorhombic,38,Amm2,0.0,True,True,0.1555634918610405
mp-1185805,Mg5Hg,"Hg, Mg",2,0.028821280833331686,Orthorhombic,38,Amm2,0.0,True,True,0.2571478174124758
mp-1094906,Ca5Mg,"Ca, Mg",2,0.04114980041666705,Orthorhombic,38,Amm2,0.0,True,True,0.11553017883748914
mp-1094340,MgTi5,"Mg, Ti",2,0.09869290138888953,Orthorhombic,38,Amm2,0.0,True,True,0.08571593913749193
mp-1094626,Mg5Ga,"Ga, Mg",2,0.060506753333333,Orthorhombic,38,Amm2,0.0,True,True,0.18633899812498247
mp-1039186,MgCd,"Cd, Mg",2,0.035299012500001226,Orthorhombic,38,Amm2,0.0,True,True,0.18999999999999995
mp-1185098,La5Mg,"La, Mg",2,0.06927965583333329,Orthorhombic,38,Amm2,0.0,True,True,0.07826237921249263
mp-1185829,Mg5Sc,"Mg, Sc",2,0.024928163333333142,Orthorhombic,38,Amm2,0.0,True,True,0.018633899812498265
mp-1185802,Mg5Ag,"Ag, Mg",2,0.018076413333333985,Orthorhombic,38,Amm2,0.0,True,True,0.23106035767497823
mp-2415538,MgZn,"Mg, Zn",2,0.06703865063333336,Orthorhombic,38,Amm2,0.0,True,True,0.16999999999999993
mp-976891,MgPb5,"Mg, Pb",2,0.05989732833333594,Orthorhombic,38,Amm2,0.0,True,True,0.38013155617496425
mp-1094530,Sr5Mg,"Mg, Sr",2,0.09758758416666669,Orthorhombic,38,Amm2,0.0,True,True,0.13416407864998742
mp-1094447,YMg,"Mg, Y",2,0.08779425833333487,Orthorhombic,38,Amm2,0.0,True,True,0.04500000000000004
mp-977122,Li5Mg,"Li, Mg",2,0.002494519722222588,Orthorhombic,38,Amm2,0.0,True,True,0.12298373876248846
mp-1094524,MgSn,"Mg, Sn",2,0.06921955708333316,Orthorhombic,38,Amm2,0.0,True,True,0.32499999999999996
mp-1094599,LiMg5,"Li, Mg",2,0.012334460833333782,Orthorhombic,38,Amm2,0.0,True,True,0.12298373876248846
mp-1216486,V3Rh5,"Rh, V",2,0.019344521874998577,Orthorhombic,38,Amm2,0.0,True,True,0.3146798968793526
mp-1094375,Y5Mg,"Mg, Y",2,0.08747272499999958,Orthorhombic,38,Amm2,0.0,True,True,0.033541019662496875
mp-1094622,MgGa2,"Ga, Mg",2,0.0842543866666654,Orthorhombic,38,Amm2,0.0,True,True,0.23570226039551584
mp-1094575,LiMg,"Li, Mg",2,0.02452137666666676,Orthorhombic,38,Amm2,0.0,True,True,0.16500000000000004
mp-1094587,LiMg2,"Li, Mg",2,0.03980715333333329,Orthorhombic,38,Amm2,0.0,True,True,0.1555634918610405
mp-1094951,Mg5Cd,"Cd, Mg",2,0.005569181666665868,Orthorhombic,38,Amm2,0.0,True,True,0.14161763857498663
mp-1039543,MgCd2,"Cd, Mg",2,0.04834551888888816,Orthorhombic,38,Amm2,0.09799999999999986,True,False,0.179133717900592
mp-983609,MgIn5,"In, Mg",2,0.06421176981481747,Orthorhombic,38,Amm2,0.0,True,True,0.1751586582374835
mp-1094573,LiMg,"Li, Mg",2,0.030320199166666395,Orthorhombic,38,Amm2,0.0,True,True,0.16500000000000004
mp-1039403,CaMg,"Ca, Mg",2,0.06696336124999935,Orthorhombic,38,Amm2,0.0,True,True,0.15500000000000003
mp-1217091,Ti3Nb,"Nb, Ti",2,0.06679139250000077,Orthorhombic,38,Amm2,0.0,True,True,0.025980762113533184
mp-1226728,CdAg,"Ag, Cd",2,0.020476040000001916,Orthorhombic,38,Amm2,0.0,True,True,0.12
mp-1094308,SrMg,"Mg, Sr",2,0.0846903674999997,Orthorhombic,38,Amm2,0.0,True,True,0.18000000000000005
mp-569514,Zn49Pt29,"Pt, Zn",2,0.0,Orthorhombic,38,Amm2,0.0,False,True,0.30446893332645075
mp-976239,LiMg,"Li, Mg",2,0.00231969249999997,Orthorhombic,38,Amm2,0.0,True,True,0.16500000000000004
mp-1217184,Y19Mg97,"Mg, Y",2,0.02683869163793018,Orthorhombic,38,Amm2,0.0,True,True,0.03330789506948126
mp-1094639,MgGa5,"Ga, Mg",2,0.07020376395833328,Orthorhombic,38,Amm2,0.0,True,True,0.18633899812498245
mp-1094299,SrMg,"Mg, Sr",2,0.09668749583333303,Orthorhombic,38,Amm2,0.0,True,True,0.18000000000000005
mp-1038953,CaMg,"Ca, Mg",2,0.04569508374999898,Orthorhombic,38,Amm2,0.25439999999999996,True,False,0.15500000000000003
mp-1185934,MgIn2,"In, Mg",2,0.02916247462962973,Orthorhombic,38,Amm2,0.0,True,True,0.22156012477178486
mp-972892,MgHg5,"Hg, Mg",2,0.049416106666663184,Orthorhombic,38,Amm2,0.0,True,True,0.2571478174124758
mp-1185825,Mg5Pb,"Mg, Pb",2,0.05824946083333171,Orthorhombic,38,Amm2,0.0,True,True,0.38013155617496425
mp-1094490,MgZn,"Mg, Zn",2,0.0826177173,Orthorhombic,38,Amm2,0.0,True,True,0.16999999999999993
mp-1094927,Mg2Cd,"Cd, Mg",2,0.018867133611110587,Orthorhombic,38,Amm2,0.0,True,True,0.179133717900592
mp-1094216,LaMg,"La, Mg",2,0.06661395916666946,Orthorhombic,38,Amm2,0.0,True,True,0.10499999999999998
mp-1094632,MgGa,"Ga, Mg",2,0.04395106166666807,Orthorhombic,38,Amm2,0.0,True,True,0.25
mp-1039468,CaMg,"Ca, Mg",2,0.03048390958333269,Orthorhombic,38,Amm2,0.08569999999999967,True,False,0.15500000000000003
mp-569727,BiPd,"Bi, Pd",2,0.01069929312499962,Orthorhombic,36,Cmc2_1,0.0,False,True,0.09000000000000008
mp-30380,GaAu2,"Au, Ga",2,0.007127586666669572,Orthorhombic,36,Cmc2_1,0.0,False,True,0.34412530017745313
mp-1216501,V6Ga7,"Ga, V",2,0.06771473769230774,Orthorhombic,42,Fmm2,0.0,True,True,0.08973333274718584
mp-1222549,Li9Ag4,"Ag, Li",2,0.009478446153845965,Orthorhombic,42,Fmm2,0.0,True,True,0.43846153846153846
mp-1215735,Zn10Fe3,"Fe, Zn",2,0.0060045394722711976,Orthorhombic,42,Fmm2,0.0,True,True,0.07583850796225385
mp-647220,Cd85Pd27,"Cd, Pd",2,0.020319149712836992,Orthorhombic,42,Fmm2,0.0,False,True,0.2181441135418493
mp-1221991,Mn7Fe3,"Fe, Mn",2,0.08750120594827493,Monoclinic,4,P2_1,0.0,True,True,0.12831211945876353
mp-1189329,Y3Co,"Co, Y",2,0.0015564962500009827,Monoclinic,4,P2_1,0.0,True,True,0.28578838324886474
mp-11441,Hf2Ga3,"Ga, Hf",2,0.0,Orthorhombic,43,Fdd2,0.0,False,True,0.2498479537638842
mp-655461,SrIn,"In, Sr",2,0.004106646875000841,Orthorhombic,43,Fdd2,0.0,False,True,0.41500000000000004
mp-1482,Zr2Al3,"Al, Zr",2,0.007218464399997515,Orthorhombic,43,Fdd2,0.0,False,True,0.137171425595858
mp-568153,Al22Mo5,"Al, Mo",2,0.007330721481483948,Orthorhombic,43,Fdd2,0.0,False,True,0.21364624684947534
mp-846,Hf2Al3,"Al, Hf",2,0.014650736999996639,Orthorhombic,43,Fdd2,0.0,False,True,0.15186836405255708
mp-30686,Zr2Ga3,"Ga, Zr",2,0.0,Orthorhombic,43,Fdd2,0.0,False,True,0.2351510153071851
mp-1094937,MgCd3,"Cd, Mg",2,0.03890128291666528,Orthorhombic,44,Imm2,0.0,True,True,0.1645448267190433
mp-1039426,Mg3Cd,"Cd, Mg",2,0.029332108749999364,Orthorhombic,44,Imm2,0.0,True,True,0.1645448267190433
mp-1094172,La3Mg,"La, Mg",2,0.04361285624999933,Orthorhombic,44,Imm2,0.0,True,True,0.09093266739736605
mp-1094608,Mg3Ga,"Ga, Mg",2,0.06203102999999954,Orthorhombic,44,Imm2,0.0,True,True,0.21650635094610965
mp-1094297,Sr3Mg,"Mg, Sr",2,0.06713983874999974,Orthorhombic,44,Imm2,0.0,True,True,0.15588457268119899
mp-1094449,Y3Mg,"Mg, Y",2,0.06947781250000062,Orthorhombic,44,Imm2,0.0,True,True,0.038971143170299774
mp-1094591,Li3Mg,"Li, Mg",2,0.004553442916666928,Orthorhombic,44,Imm2,0.0,True,True,0.1428941916244324
mp-30738,LiIr3,"Ir, Li",2,0.0,Orthorhombic,44,Imm2,0.0,False,True,0.5282754963085077
mp-1185883,MgHg3,"Hg, Mg",2,0.0494765662499983,Orthorhombic,44,Imm2,0.0,True,True,0.2987787643056313
mp-1094430,MgZn3,"Mg, Zn",2,0.08543683797618917,Orthorhombic,44,Imm2,0.0,True,True,0.1472243186433545
mp-1094427,Mg3Zn,"Mg, Zn",2,0.07672283615000008,Orthorhombic,44,Imm2,0.0,True,True,0.1472243186433545
mp-1104765,LaAl4,"Al, La",2,0.020358377333334232,Orthorhombic,44,Imm2,0.0,False,True,0.20400000000000001
mp-973320,MgIn3,"In, Mg",2,0.01825134555555641,Orthorhombic,44,Imm2,0.0,True,True,0.20351596988934306
mp-1001787,LiRh3,"Li, Rh",2,0.0,Orthorhombic,44,Imm2,0.0,False,True,0.562916512459885
mp-1094202,MgSn3,"Mg, Sn",2,0.08602048937500051,Orthorhombic,44,Imm2,0.0,True,True,0.2814582562299425
mp-1094596,LiMg3,"Li, Mg",2,0.02273901374999987,Orthorhombic,44,Imm2,0.0,True,True,0.1428941916244324
mp-974455,Re3Ru,"Re, Ru",2,0.0,Orthorhombic,44,Imm2,0.0,True,True,0.1299038105676659
mp-1039411,Ca3Mg,"Ca, Mg",2,0.05187731812499963,Orthorhombic,44,Imm2,0.0,True,True,0.13423393758658803
mp-978279,Mg3Cu,"Cu, Mg",2,0.07595346249999935,Orthorhombic,44,Imm2,0.0,True,True,0.25547749411640935
mp-865611,MgRh3,"Mg, Rh",2,0.0,Orthorhombic,44,Imm2,0.0,True,True,0.42002232083545266
mp-1185968,MgSc3,"Mg, Sc",2,0.04980137749999969,Orthorhombic,44,Imm2,0.0,True,True,0.021650635094610987