material_id,formula,elements,num_elements,energy_above_hull,crystal_system,spacegroup_number,spacegroup_symbol,band_gap,theoretical,is_metal,electronegativity_difference,atomic_concentrations
mp-10695,ZnS,"S, Zn",2,0.0001462457142853424,Cubic,216,F-43m,2.0192,False,False,0.4650,Zn: 0.5000; S: 0.5000
mp-1639,BN,"B, N",2,0.07735396750000056,Cubic,216,F-43m,4.4506,False,False,0.5000,B: 0.5000; N: 0.5000
mp-252,BeTe,"Be, Te",2,0.0,Cubic,216,F-43m,2.0172999999999996,False,False,0.2650,Be: 0.5000; Te: 0.5000
mp-1986,ZnO,"O, Zn",2,0.008068930000000307,Cubic,216,F-43m,0.6308999999999999,False,False,0.8950,Zn: 0.5000; O: 0.5000
mp-20351,InP,"In, P",2,0.0,Cubic,216,F-43m,0.4546000000000001,False,False,0.2050,In: 0.5000; P: 0.5000
mp-2534,GaAs,"As, Ga",2,0.0,Cubic,216,F-43m,0.18610000000000015,False,False,0.1850,Ga: 0.5000; As: 0.5000
mp-406,CdTe,"Cd, Te",2,0.0,Cubic,216,F-43m,0.5846000000000002,False,False,0.2050,Cd: 0.5000; Te: 0.5000
mp-1479,BP,"B, P",2,0.0,Cubic,216,F-43m,1.2434999999999992,False,False,0.0750,B: 0.5000; P: 0.5000
mp-1550,AlP,"Al, P",2,0.0,Cubic,216,F-43m,1.6294000000000004,False,False,0.2900,Al: 0.5000; P: 0.5000
mp-2172,AlAs,"Al, As",2,0.0,Cubic,216,F-43m,1.5036999999999998,False,False,0.2850,Al: 0.5000; As: 0.5000
mp-22913,CuBr,"Br, Cu",2,0.0,Cubic,216,F-43m,0.48709999999999987,False,False,0.5300,Cu: 0.5000; Br: 0.5000
mp-2624,AlSb,"Al, Sb",2,0.0,Cubic,216,F-43m,1.2255000000000003,False,False,0.2200,Al: 0.5000; Sb: 0.5000
mp-22408,CoO,"Co, O",2,0.0,Cubic,216,F-43m,0.5880000000000001,False,False,0.7800,Co: 0.5000; O: 0.5000
mp-2490,GaP,"Ga, P",2,0.0,Cubic,216,F-43m,1.6038999999999999,False,False,0.1900,Ga: 0.5000; P: 0.5000
mp-8062,SiC,"C, Si",2,0.00016855236842161503,Cubic,216,F-43m,1.3669000000000002,False,False,0.3250,Si: 0.5000; C: 0.5000
mp-22895,CuI,"Cu, I",2,0.006241591249999345,Cubic,216,F-43m,1.1762999999999995,False,False,0.3800,Cu: 0.5000; I: 0.5000
mp-2469,CdS,"Cd, S",2,0.0027132225000006116,Cubic,216,F-43m,1.0492,False,False,0.4450,Cd: 0.5000; S: 0.5000
mp-422,BeS,"Be, S",2,0.0,Cubic,216,F-43m,3.1453,False,False,0.5050,Be: 0.5000; S: 0.5000
mp-1541,BeSe,"Be, Se",2,0.0,Cubic,216,F-43m,2.6636999999999995,False,False,0.4900,Be: 0.5000; Se: 0.5000
mp-22914,CuCl,"Cl, Cu",2,0.018326194999998435,Cubic,216,F-43m,0.5646,False,False,0.6300,Cu: 0.5000; Cl: 0.5000
mp-22925,AgI,"Ag, I",2,0.00240655500000031,Cubic,216,F-43m,1.3674,False,False,0.3650,Ag: 0.5000; I: 0.5000
mp-2176,ZnTe,"Te, Zn",2,0.0,Cubic,216,F-43m,1.0732999999999997,False,False,0.2250,Zn: 0.5000; Te: 0.5000
mp-10044,BAs,"As, B",2,0.08038976749999982,Cubic,216,F-43m,1.2036999999999995,False,False,0.0700,B: 0.5000; As: 0.5000
mp-2293,MnSe,"Mn, Se",2,0.0035405599999993598,Cubic,216,F-43m,0.0484,False,False,0.5000,Mn: 0.5000; Se: 0.5000
mp-2691,CdSe,"Cd, Se",2,0.0005536825000014289,Cubic,216,F-43m,0.5096,False,False,0.4300,Cd: 0.5000; Se: 0.5000
mp-947,Au2S,"Au, S",2,0.0,Cubic,224,Pn-3m,1.9091,False,False,0.0189,Au: 0.6667; S: 0.3333
mp-361,Cu2O,"Cu, O",2,0.020215283333334,Cubic,224,Pn-3m,0.5126999999999997,False,False,0.7260,Cu: 0.6667; O: 0.3333
mp-15661,Sc4C3,"C, Sc",2,0.0,Cubic,220,I-43d,0.32870000000000044,False,False,0.5889,Sc: 0.5714; C: 0.4286
mp-11661,Zr3N4,"N, Zr",2,0.06071053321428721,Cubic,220,I-43d,0.6862000000000004,False,False,0.8462,Zr: 0.4286; N: 0.5714
mp-1347,Th3P4,"P, Th",2,0.0,Cubic,220,I-43d,0.2616999999999994,False,False,0.4404,Th: 0.4286; P: 0.5714
mp-552,Th3Sb4,"Sb, Th",2,0.0,Cubic,220,I-43d,0.03819999999999979,False,False,0.3712,Th: 0.4286; Sb: 0.5714
mp-11660,Hf3N4,"Hf, N",2,0.06918367607143239,Cubic,220,I-43d,1.0259,False,False,0.8611,Hf: 0.4286; N: 0.5714
mp-382,Th3As4,"As, Th",2,0.0,Cubic,220,I-43d,0.2713000000000001,False,False,0.4355,Th: 0.4286; As: 0.5714
mp-23270,Th3Bi4,"Bi, Th",2,0.0,Cubic,220,I-43d,0.09210000000000029,False,False,0.3563,Th: 0.4286; Bi: 0.5714
mp-2064,RbF,"F, Rb",2,0.05158332500000107,Cubic,221,Pm-3m,5.905,False,False,1.5800,Rb: 0.5000; F: 0.5000
mp-632319,CsH,"Cs, H",2,0.016097849999999525,Cubic,221,Pm-3m,2.5693,False,False,0.7050,Cs: 0.5000; H: 0.5000
mp-23303,RbBr,"Br, Rb",2,0.03156426500000009,Cubic,221,Pm-3m,3.9211,False,False,1.0700,Rb: 0.5000; Br: 0.5000
mp-23302,RbI,"I, Rb",2,0.029722924999997957,Cubic,221,Pm-3m,3.3463000000000003,False,False,0.9200,Rb: 0.5000; I: 0.5000
mp-10694,ScF3,"F, Sc",2,0.00025103375000057326,Cubic,221,Pm-3m,6.097799999999999,False,False,1.1345,Sc: 0.2500; F: 0.7500
mp-22906,CsBr,"Br, Cs",2,0.0,Cubic,221,Pm-3m,4.2392,False,False,1.0850,Cs: 0.5000; Br: 0.5000
mp-23197,TlI,"I, Tl",2,0.020759689999998443,Cubic,221,Pm-3m,1.8107999999999995,False,False,0.5200,Tl: 0.5000; I: 0.5000
mp-375,UO3,"O, U",2,0.0,Cubic,221,Pm-3m,1.6349999999999998,False,False,0.8920,U: 0.2500; O: 0.7500
mp-23167,TlCl,"Cl, Tl",2,0.0013070874999989712,Cubic,221,Pm-3m,2.1732,False,False,0.7700,Tl: 0.5000; Cl: 0.5000
mp-554201,MoF3,"F, Mo",2,0.05094273125000015,Cubic,221,Pm-3m,2.9582,False,False,0.7881,Mo: 0.2500; F: 0.7500
mp-22865,CsCl,"Cl, Cs",2,0.0,Cubic,221,Pm-3m,4.9883999999999995,False,False,1.1850,Cs: 0.5000; Cl: 0.5000
mp-23299,RbCl,"Cl, Rb",2,0.02977404000000128,Cubic,221,Pm-3m,4.7794,False,False,1.1700,Rb: 0.5000; Cl: 0.5000
mp-22901,KI,"I, K",2,0.0603117399999995,Cubic,221,Pm-3m,3.2403999999999997,False,False,0.9200,K: 0.5000; I: 0.5000
mp-570891,KBr,"Br, K",2,0.07306301000000026,Cubic,221,Pm-3m,3.8761,False,False,1.0700,K: 0.5000; Br: 0.5000
mp-8039,AlF3,"Al, F",2,0.009358996249999585,Cubic,221,Pm-3m,7.420299999999999,False,False,1.0262,Al: 0.2500; F: 0.7500
mp-23289,KCl,"Cl, K",2,0.07764382000000047,Cubic,221,Pm-3m,4.8004999999999995,False,False,1.1700,K: 0.5000; Cl: 0.5000
mp-19390,WO3,"O, W",2,0.007691435312500161,Cubic,221,Pm-3m,1.1124,False,False,0.4677,W: 0.2500; O: 0.7500
mp-22875,TlBr,"Br, Tl",2,0.0046403124999940815,Cubic,221,Pm-3m,1.9877,False,False,0.6700,Tl: 0.5000; Br: 0.5000
mp-1056920,CsI,"Cs, I",2,0.03245251000000149,Cubic,221,Pm-3m,3.6776000000000004,False,False,0.9350,Cs: 0.5000; I: 0.5000
mp-558836,MoF6,"F, Mo",2,0.030417401785715725,Cubic,229,Im-3m,4.2423,False,False,0.6369,Mo: 0.1429; F: 0.8571
mp-466,Nb2F5,"F, Nb",2,0.0,Cubic,229,Im-3m,0.1513,False,False,1.0752,Nb: 0.2857; F: 0.7143
mp-8560,SF6,"F, S",2,0.008920994761905554,Cubic,229,Im-3m,5.8139,False,False,0.4899,S: 0.1429; F: 0.8571
mp-2184,As2O3,"As, O",2,0.002575231999999872,Cubic,227,Fd-3m,4.0234000000000005,False,False,0.6173,As: 0.4000; O: 0.6000
mp-8352,SiO2,"O, Si",2,0.02055120055555726,Cubic,227,Fd-3m,5.3649000000000004,False,False,0.7260,Si: 0.3333; O: 0.6667
mp-1999,Sb2O3,"O, Sb",2,0.004735054500001112,Cubic,227,Fd-3m,3.3407999999999998,False,False,0.6810,Sb: 0.4000; O: 0.6000
mp-16031,Sn3N4,"N, Sn",2,0.052327968571429295,Cubic,227,Fd-3m,0.23439999999999994,False,False,0.5345,Sn: 0.4286; N: 0.5714
mp-32895,SiO2,"O, Si",2,0.016272337638890022,Cubic,227,Fd-3m,5.7862,False,False,0.7260,Si: 0.3333; O: 0.6667
mp-2109,CePt2,"Ce, Pt",2,0.0,Cubic,227,Fd-3m,0.008900000000000574,False,False,0.5468,Ce: 0.3333; Pt: 0.6667
mp-559450,FeF3,"F, Fe",2,0.02045475875000058,Cubic,227,Fd-3m,3.1326,False,False,0.9310,Fe: 0.2500; F: 0.7500
mp-1106356,AlH3,"Al, H",2,0.010014458750000621,Cubic,227,Fd-3m,3.1106999999999996,False,False,0.2555,Al: 0.2500; H: 0.7500
mp-1095397,SnS2,"S, Sn",2,0.0032224066666692863,Cubic,227,Fd-3m,1.2026,False,False,0.2923,Sn: 0.3333; S: 0.6667
mp-561090,SiO2,"O, Si",2,0.015246379607843252,Cubic,227,Fd-3m,5.5448,False,False,0.7260,Si: 0.3333; O: 0.6667
mp-571084,MnBr2,"Br, Mn",2,0.0019265433333330861,Cubic,227,Fd-3m,1.5333999999999999,False,False,0.6647,Mn: 0.3333; Br: 0.6667
mp-25275,MnO2,"Mn, O",2,0.07605056388888798,Cubic,227,Fd-3m,1.5739,False,False,0.8910,Mn: 0.3333; O: 0.6667
mp-1196998,K3Ge17,"Ge, K",2,0.0,Cubic,227,Fd-3m,0.058699999999999974,False,False,0.4249,K: 0.1500; Ge: 0.8500
mp-1199827,Ba8Ge43,"Ba, Ge",2,0.03219437318627438,Cubic,230,Ia-3d,0.022999999999999687,False,False,0.4073,Ba: 0.1569; Ge: 0.8431
mp-559545,SeO2,"O, Se",2,0.009079646666666719,Orthorhombic,26,Pmc2_1,3.4417,False,False,0.4196,Se: 0.3333; O: 0.6667
mp-560882,SeO2,"O, Se",2,0.007679208749998168,Orthorhombic,26,Pmc2_1,3.4194,False,False,0.4196,Se: 0.3333; O: 0.6667
mp-27411,TlP5,"P, Tl",2,0.0,Orthorhombic,26,Pmc2_1,1.1848999999999998,False,False,0.2124,Tl: 0.1667; P: 0.8333
mp-23231,AgBr,"Ag, Br",2,0.0,Cubic,225,Fm-3m,0.7303999999999999,False,False,0.5150,Ag: 0.5000; Br: 0.5000
mp-10378,Cs3Sb,"Cs, Sb",2,0.0,Cubic,225,Fm-3m,0.6126,False,False,0.5456,Cs: 0.7500; Sb: 0.2500
mp-8860,Na3As,"As, Na",2,0.042532438333333644,Cubic,225,Fm-3m,0.11670000000000003,False,False,0.5413,Na: 0.7500; As: 0.2500
mp-1138,LiF,"F, Li",2,0.0,Cubic,225,Fm-3m,8.7161,False,False,1.5000,Li: 0.5000; F: 0.5000
mp-1410,DyN,"Dy, N",2,0.0,Cubic,225,Fm-3m,0.04309999999999947,False,False,0.9100,Dy: 0.5000; N: 0.5000
mp-23295,RbCl,"Cl, Rb",2,0.0,Cubic,225,Fm-3m,4.8388,False,False,1.1700,Rb: 0.5000; Cl: 0.5000
mp-1029,BaF2,"Ba, F",2,0.0,Cubic,225,Fm-3m,6.6029,False,False,1.4566,Ba: 0.3333; F: 0.6667
mp-1975,TmN,"N, Tm",2,0.0,Cubic,225,Fm-3m,0.1528999999999998,False,False,0.8950,Tm: 0.5000; N: 0.5000
mp-22905,LiCl,"Cl, Li",2,0.0,Cubic,225,Fm-3m,6.25,False,False,1.0900,Li: 0.5000; Cl: 0.5000
mp-315,PbF2,"F, Pb",2,0.0,Cubic,225,Fm-3m,4.3938,False,False,0.7778,Pb: 0.3333; F: 0.6667
mp-1415,CaSe,"Ca, Se",2,0.0,Cubic,225,Fm-3m,2.0728000000000004,False,False,0.7750,Ca: 0.5000; Se: 0.5000
mp-1500,BaS,"Ba, S",2,0.0,Cubic,225,Fm-3m,2.1488,False,False,0.8450,Ba: 0.5000; S: 0.5000
mp-22898,KI,"I, K",2,0.0,Cubic,225,Fm-3m,3.8513,False,False,0.9200,K: 0.5000; I: 0.5000
mp-2117,TbN,"N, Tb",2,0.0,Cubic,225,Fm-3m,0.013399999999999856,False,False,0.9150,Tb: 0.5000; N: 0.5000
mp-614603,CsI,"Cs, I",2,0.0,Cubic,225,Fm-3m,3.8556,False,False,0.9350,Cs: 0.5000; I: 0.5000
mp-11327,Rb2Se,"Rb, Se",2,0.0,Cubic,225,Fm-3m,1.7968,False,False,0.8155,Rb: 0.6667; Se: 0.3333
mp-2612,GeTe,"Ge, Te",2,0.020308700000001068,Cubic,225,Fm-3m,0.4068000000000005,False,False,0.0450,Ge: 0.5000; Te: 0.5000
mp-441,Rb2Te,"Rb, Te",2,0.0,Cubic,225,Fm-3m,1.8766,False,False,0.6034,Rb: 0.6667; Te: 0.3333
mp-1565,ZrO2,"O, Zr",2,0.05567256666666509,Cubic,225,Fm-3m,3.125,False,False,0.9947,Zr: 0.3333; O: 0.6667
mp-2074,Li3Sb,"Li, Sb",2,0.007977497500000652,Cubic,225,Fm-3m,0.7073999999999998,False,False,0.4633,Li: 0.7500; Sb: 0.2500
mp-648,Na2S,"Na, S",2,0.0,Cubic,225,Fm-3m,2.4399,False,False,0.7778,Na: 0.6667; S: 0.3333
mp-1022,K2S,"K, S",2,0.0,Cubic,225,Fm-3m,2.3201,False,False,0.8297,K: 0.6667; S: 0.3333
mp-1394,Rb2O,"O, Rb",2,0.0031695866666665573,Cubic,225,Fm-3m,1.3192,False,False,1.2351,Rb: 0.6667; O: 0.3333
mp-1784,CsF,"Cs, F",2,0.0,Cubic,225,Fm-3m,5.2626,False,False,1.5950,Cs: 0.5000; F: 0.5000
mp-8289,SnF3,"F, Sn",2,0.014627814687500518,Cubic,225,Fm-3m,2.7195,False,False,0.8747,Sn: 0.2500; F: 0.7500
mp-2286,Li2Se,"Li, Se",2,0.0,Cubic,225,Fm-3m,2.9746,False,False,0.7401,Li: 0.6667; Se: 0.3333
mp-1102,LuN,"Lu, N",2,0.0,Cubic,225,Fm-3m,0.23309999999999986,False,False,0.8850,Lu: 0.5000; N: 0.5000
mp-22903,RbI,"I, Rb",2,0.0,Cubic,225,Fm-3m,3.7765,False,False,0.9200,Rb: 0.5000; I: 0.5000
mp-571222,CsBr,"Br, Cs",2,0.005111849999998697,Cubic,225,Fm-3m,4.2575,False,False,1.0850,Cs: 0.5000; Br: 0.5000
mp-23209,SrCl2,"Cl, Sr",2,0.0,Cubic,225,Fm-3m,5.2286,False,False,1.0418,Sr: 0.3333; Cl: 0.6667
mp-1087,SrS,"S, Sr",2,0.0,Cubic,225,Fm-3m,2.497,False,False,0.8150,Sr: 0.5000; S: 0.5000
mp-23870,NaH,"H, Na",2,0.0,Cubic,225,Fm-3m,3.7666,False,False,0.6350,Na: 0.5000; H: 0.5000
mp-22867,RbBr,"Br, Rb",2,0.0,Cubic,225,Fm-3m,4.192,False,False,1.0700,Rb: 0.5000; Br: 0.5000
mp-22899,LiI,"I, Li",2,0.02873937250000047,Cubic,225,Fm-3m,4.2306,False,False,0.8400,Li: 0.5000; I: 0.5000
mp-971,K2O,"K, O",2,0.0,Cubic,225,Fm-3m,1.7072,False,False,1.2351,K: 0.6667; O: 0.3333
mp-2758,SrSe,"Se, Sr",2,0.0,Cubic,225,Fm-3m,2.2313,False,False,0.8000,Sr: 0.5000; Se: 0.5000
mp-21276,PbS,"Pb, S",2,0.0,Cubic,225,Fm-3m,0.46669999999999945,False,False,0.1250,Pb: 0.5000; S: 0.5000
mp-23193,KCl,"Cl, K",2,0.0,Cubic,225,Fm-3m,5.027,False,False,1.1700,K: 0.5000; Cl: 0.5000
mp-8041,Rb2S,"Rb, S",2,0.0,Cubic,225,Fm-3m,1.9632,False,False,0.8297,Rb: 0.6667; S: 0.3333
mp-1315,MgS,"Mg, S",2,0.0,Cubic,225,Fm-3m,2.7574,False,False,0.6350,Mg: 0.5000; S: 0.5000
mp-1057286,CsH,"Cs, H",2,0.0,Cubic,225,Fm-3m,2.3475,False,False,0.7050,Cs: 0.5000; H: 0.5000
mp-19009,NiO,"Ni, O",2,0.0,Cubic,225,Fm-3m,2.3008999999999995,False,False,0.7650,Ni: 0.5000; O: 0.5000
mp-23259,LiBr,"Br, Li",2,0.009895712500000542,Cubic,225,Fm-3m,4.9234,False,False,0.9900,Li: 0.5000; Br: 0.5000
mp-2784,Na2Te,"Na, Te",2,0.0,Cubic,225,Fm-3m,2.0282,False,False,0.5515,Na: 0.6667; Te: 0.3333
mp-24084,KH,"H, K",2,0.0,Cubic,225,Fm-3m,3.4330999999999996,False,False,0.6900,K: 0.5000; H: 0.5000
mp-463,KF,"F, K",2,0.0,Cubic,225,Fm-3m,5.949400000000001,False,False,1.5800,K: 0.5000; F: 0.5000
mp-1569,Be2C,"Be, C",2,0.0,Cubic,225,Fm-3m,1.1636999999999995,False,False,0.4620,Be: 0.6667; C: 0.3333
mp-2201,PbSe,"Pb, Se",2,0.0,Cubic,225,Fm-3m,0.42569999999999997,False,False,0.1100,Pb: 0.5000; Se: 0.5000
mp-23251,KBr,"Br, K",2,0.0,Cubic,225,Fm-3m,4.3224,False,False,1.0700,K: 0.5000; Br: 0.5000
mp-1747,K2Te,"K, Te",2,0.0,Cubic,225,Fm-3m,2.141,False,False,0.6034,K: 0.6667; Te: 0.3333
mp-10759,GeSe,"Ge, Se",2,0.06116251499999947,Cubic,225,Fm-3m,0.015300000000000757,False,False,0.2700,Ge: 0.5000; Se: 0.5000
mp-19184,VO,"O, V",2,0.02183531770833369,Cubic,225,Fm-3m,0.9700999999999995,False,False,0.9050,V: 0.5000; O: 0.5000
mp-22862,NaCl,"Cl, Na",2,0.0,Cubic,225,Fm-3m,5.0037,False,False,1.1150,Na: 0.5000; Cl: 0.5000
mp-19717,TePb,"Pb, Te",2,0.0,Cubic,225,Fm-3m,0.8063000000000002,False,False,0.1150,Te: 0.5000; Pb: 0.5000
mp-1958,SrTe,"Sr, Te",2,0.0,Cubic,225,Fm-3m,1.7616,False,False,0.5750,Sr: 0.5000; Te: 0.5000
mp-2605,CaO,"Ca, O",2,0.0,Cubic,225,Fm-3m,3.6301000000000005,False,False,1.2200,Ca: 0.5000; O: 0.5000
mp-241,CdF2,"Cd, F",2,0.0,Cubic,225,Fm-3m,2.8977000000000004,False,False,1.0795,Cd: 0.3333; F: 0.6667
mp-2530,Li2Te,"Li, Te",2,0.0,Cubic,225,Fm-3m,2.4914,False,False,0.5280,Li: 0.6667; Te: 0.3333
mp-568560,TlBr,"Br, Tl",2,0.004668182499997897,Cubic,225,Fm-3m,2.2962000000000002,False,False,0.6700,Tl: 0.5000; Br: 0.5000
mp-569639,TlCl,"Cl, Tl",2,0.006233657499997491,Cubic,225,Fm-3m,2.5369,False,False,0.7700,Tl: 0.5000; Cl: 0.5000
mp-10760,MgSe,"Mg, Se",2,0.01005978999999968,Cubic,225,Fm-3m,1.7609,False,False,0.6200,Mg: 0.5000; Se: 0.5000
mp-2114,YN,"N, Y",2,0.0,Cubic,225,Fm-3m,0.1510000000000007,False,False,0.9100,Y: 0.5000; N: 0.5000
mp-981,SrF2,"F, Sr",2,0.0,Cubic,225,Fm-3m,6.7674,False,False,1.4284,Sr: 0.3333; F: 0.6667
mp-24721,RbH,"H, Rb",2,0.0,Cubic,225,Fm-3m,2.9163,False,False,0.6900,Rb: 0.5000; H: 0.5000
mp-23268,NaI,"I, Na",2,0.0,Cubic,225,Fm-3m,3.5686999999999998,False,False,0.8650,Na: 0.5000; I: 0.5000
mp-8426,K2Se,"K, Se",2,0.0,Cubic,225,Fm-3m,2.0925000000000002,False,False,0.8155,K: 0.6667; Se: 0.3333
mp-573697,CsCl,"Cl, Cs",2,0.007141250000000099,Cubic,225,Fm-3m,4.8482,False,False,1.1850,Cs: 0.5000; Cl: 0.5000
mp-2741,CaF2,"Ca, F",2,0.0,Cubic,225,Fm-3m,7.1157,False,False,1.4048,Ca: 0.3333; F: 0.6667
mp-23703,LiH,"H, Li",2,0.0,Cubic,225,Fm-3m,2.981,False,False,0.6100,Li: 0.5000; H: 0.5000
mp-22919,AgI,"Ag, I",2,0.09501691999999995,Cubic,225,Fm-3m,0.7684000000000002,False,False,0.3650,Ag: 0.5000; I: 0.5000
mp-22916,NaBr,"Br, Na",2,0.0,Cubic,225,Fm-3m,4.0895,False,False,1.0150,Na: 0.5000; Br: 0.5000
mp-8177,HgF2,"F, Hg",2,0.0,Cubic,225,Fm-3m,0.9687,False,False,0.9334,Hg: 0.3333; F: 0.6667
mp-1519,CaTe,"Ca, Te",2,0.0,Cubic,225,Fm-3m,1.5535,False,False,0.5500,Ca: 0.5000; Te: 0.5000
mp-682,NaF,"F, Na",2,0.0,Cubic,225,Fm-3m,6.204,False,False,1.5250,Na: 0.5000; F: 0.5000
mp-1883,SnTe,"Sn, Te",2,0.0,Cubic,225,Fm-3m,0.04190000000000005,False,False,0.0700,Sn: 0.5000; Te: 0.5000
mp-550893,HfO2,"Hf, O",2,0.08357950333333264,Cubic,225,Fm-3m,3.8043000000000005,False,False,1.0088,Hf: 0.3333; O: 0.6667
mp-643,ThO2,"O, Th",2,0.0,Cubic,225,Fm-3m,4.4187,False,False,1.0088,Th: 0.3333; O: 0.6667
mp-19006,MnO,"Mn, O",2,0.053368562500001104,Cubic,225,Fm-3m,0.18440000000000012,False,False,0.9450,Mn: 0.5000; O: 0.5000
mp-19830,ErN,"Er, N",2,0.0,Cubic,225,Fm-3m,0.12429999999999986,False,False,0.9000,Er: 0.5000; N: 0.5000
mp-1266,Na2Se,"Na, Se",2,0.0,Cubic,225,Fm-3m,2.0153,False,False,0.7637,Na: 0.6667; Se: 0.3333
mp-1342,BaO,"Ba, O",2,0.0,Cubic,225,Fm-3m,2.0906000000000002,False,False,1.2750,Ba: 0.5000; O: 0.5000
mp-1153,Li2S,"Li, S",2,0.0,Cubic,225,Fm-3m,3.3862000000000005,False,False,0.7542,Li: 0.6667; S: 0.3333
mp-1876,SnS,"S, Sn",2,0.0916259837499993,Cubic,225,Fm-3m,0.08940000000000037,False,False,0.3100,Sn: 0.5000; S: 0.5000
mp-1265,MgO,"Mg, O",2,0.0,Cubic,225,Fm-3m,4.4292,False,False,1.0650,Mg: 0.5000; O: 0.5000
mp-1000,BaTe,"Ba, Te",2,0.0,Cubic,225,Fm-3m,1.593,False,False,0.6050,Ba: 0.5000; Te: 0.5000
mp-22922,AgCl,"Ag, Cl",2,0.0,Cubic,225,Fm-3m,0.9522000000000002,False,False,0.6150,Ag: 0.5000; Cl: 0.5000
mp-2352,Na2O,"Na, O",2,0.0,Cubic,225,Fm-3m,1.8736000000000002,False,False,1.1832,Na: 0.6667; O: 0.3333
mp-2693,SnSe,"Se, Sn",2,0.04118599874999873,Cubic,225,Fm-3m,0.1189,False,False,0.2950,Sn: 0.5000; Se: 0.5000
mp-10159,K3Sb,"K, Sb",2,0.015185716250000425,Cubic,225,Fm-3m,0.6773,False,False,0.5326,K: 0.7500; Sb: 0.2500
mp-1672,CaS,"Ca, S",2,0.0,Cubic,225,Fm-3m,2.3819,False,False,0.7900,Ca: 0.5000; S: 0.5000
mp-1253,BaSe,"Ba, Se",2,0.0,Cubic,225,Fm-3m,1.9487999999999999,False,False,0.8300,Ba: 0.5000; Se: 0.5000
mp-1367,Mg2Si,"Mg, Si",2,0.0,Cubic,225,Fm-3m,0.21799999999999997,False,False,0.2781,Mg: 0.6667; Si: 0.3333
mp-408,Mg2Ge,"Ge, Mg",2,0.0,Cubic,225,Fm-3m,0.16890000000000027,False,False,0.3300,Mg: 0.6667; Ge: 0.3333
mp-2472,SrO,"O, Sr",2,0.0,Cubic,225,Fm-3m,3.2748,False,False,1.2450,Sr: 0.5000; O: 0.5000
mp-1776,UN2,"N, U",2,0.0,Cubic,225,Fm-3m,0.6927000000000003,False,False,0.7825,U: 0.3333; N: 0.6667
mp-568662,BaCl2,"Ba, Cl",2,0.0,Cubic,225,Fm-3m,5.4291,False,False,1.0701,Ba: 0.3333; Cl: 0.6667
mp-20194,CeO2,"Ce, O",2,0.0,Cubic,225,Fm-3m,1.8647,False,False,1.0937,Ce: 0.3333; O: 0.6667
mp-1960,Li2O,"Li, O",2,0.0,Cubic,225,Fm-3m,4.8986,False,False,1.1597,Li: 0.6667; O: 0.3333
mp-883,HoN,"Ho, N",2,0.0,Cubic,225,Fm-3m,0.08749999999999991,False,False,0.9050,Ho: 0.5000; N: 0.5000
mp-571102,TlI,"I, Tl",2,0.0,Cubic,225,Fm-3m,2.2085999999999997,False,False,0.5200,Tl: 0.5000; I: 0.5000
mp-581967,Nb2O5,"Nb, O",2,0.0,Monoclinic,3,P2,1.6713,False,False,0.8312,Nb: 0.2857; O: 0.7143
mp-28180,Sb4F15,"F, Sb",2,0.0011907342763253226,Orthorhombic,29,Pca2_1,3.5793,False,False,0.7868,Sb: 0.2105; F: 0.7895
mp-680333,Ge4Se9,"Ge, Se",2,0.0,Orthorhombic,29,Pca2_1,1.2221,False,False,0.2492,Ge: 0.3077; Se: 0.6923
mp-569051,MgH2,"H, Mg",2,0.04380347000000029,Orthorhombic,29,Pca2_1,2.3531,False,False,0.4196,Mg: 0.3333; H: 0.6667
mp-550714,PbO,"O, Pb",2,0.02052567453124965,Orthorhombic,29,Pca2_1,2.3054,False,False,0.5550,Pb: 0.5000; O: 0.5000
mp-27465,S8O,"O, S",2,0.05311817932291607,Orthorhombic,29,Pca2_1,2.4234999999999998,False,False,0.2703,S: 0.8889; O: 0.1111
mp-556605,ZrO2,"O, Zr",2,0.016660947500000134,Orthorhombic,29,Pca2_1,3.6906999999999996,False,False,0.9947,Zr: 0.3333; O: 0.6667
mp-567269,TeI4,"I, Te",2,0.0020793085000008205,Orthorhombic,31,Pmn2_1,1.8285999999999998,False,False,0.2240,Te: 0.2000; I: 0.8000
mp-570506,ZrI2,"I, Zr",2,0.0,Orthorhombic,31,Pmn2_1,0.2845999999999993,False,False,0.6270,Zr: 0.3333; I: 0.6667
mp-545552,SnO,"O, Sn",2,0.07143616499999794,Orthorhombic,31,Pmn2_1,1.6851000000000003,False,False,0.7400,Sn: 0.5000; O: 0.5000
mp-1189633,Sb2S3,"S, Sb",2,0.0006069709999998452,Orthorhombic,31,Pmn2_1,1.2751000000000001,False,False,0.2596,Sb: 0.4000; S: 0.6000
mp-553945,SiO2,"O, Si",2,0.011418784270832205,Orthorhombic,31,Pmn2_1,5.6059,False,False,0.7260,Si: 0.3333; O: 0.6667
mp-22889,ZnCl2,"Cl, Zn",2,0.0006679683333334907,Orthorhombic,33,Pna2_1,4.04,False,False,0.7118,Zn: 0.3333; Cl: 0.6667
mp-28027,AsF3,"As, F",2,0.0,Orthorhombic,33,Pna2_1,5.359999999999999,False,False,0.7794,As: 0.2500; F: 0.7500