material_id,formula,elements,num_elements,energy_above_hull,crystal_system,spacegroup_number,spacegroup_symbol,band_gap,theoretical,is_metal,electronegativity_difference
mp-1104792,MnBe12,"Be, Mn",2,0.0,Tetragonal,139,I4/mmm,0.0,False,True,0.005329387100211935
mp-978280,Mg3Ga,"Ga, Mg",2,0.04801992249999998,Tetragonal,139,I4/mmm,0.0,True,True,0.21650635094610965
mp-1184006,GaCo3,"Co, Ga",2,0.061543802499999245,Tetragonal,139,I4/mmm,0.0,True,True,0.030310889132455283
mp-865355,Zn3Pt,"Pt, Zn",2,0.0,Tetragonal,139,I4/mmm,0.0,True,True,0.27279800219209815
mp-978283,Mg3In,"In, Mg",2,0.01696658250000027,Tetragonal,139,I4/mmm,0.0,True,True,0.20351596988934306
mp-1185200,Li3Au,"Au, Li",2,0.004172272499999963,Tetragonal,139,I4/mmm,0.0,True,True,0.6754998149518622
mp-1184001,GaCu3,"Cu, Ga",2,0.0038695449999988085,Tetragonal,139,I4/mmm,0.0,True,True,0.03897114317029968
mp-1018178,Ba2Zn,"Ba, Zn",2,0.0,Tetragonal,139,I4/mmm,0.0,False,True,0.35826743580118403
mp-571030,TlPd3,"Pd, Tl",2,0.00558058374999959,Tetragonal,139,I4/mmm,0.0,False,True,0.25114736709748725
mp-1018105,Zr2Zn,"Zn, Zr",2,0.016274941666665654,Tetragonal,139,I4/mmm,0.0,False,True,0.15084944665313005
mp-971779,ZnRh3,"Rh, Zn",2,0.01551501249999987,Tetragonal,139,I4/mmm,0.0,True,True,0.27279800219209815
mp-865362,Zn3Ir,"Ir, Zn",2,0.0,Tetragonal,139,I4/mmm,0.0,True,True,0.23815698604072075
mp-982871,Na3Pt,"Na, Pt",2,0.08830301215517089,Tetragonal,139,I4/mmm,0.0,True,True,0.584567147554496
mp-1187256,TaTi3,"Ta, Ti",2,0.09748567999999835,Tetragonal,139,I4/mmm,0.0,True,True,0.01732050807568879
mp-973092,ScCu3,"Cu, Sc",2,0.03170728749999974,Tetragonal,139,I4/mmm,0.0,True,True,0.23382685902179834
mp-2348,Zr2Au,"Au, Zr",2,0.0,Tetragonal,139,I4/mmm,0.0,False,True,0.5703994701571483
mp-1185266,LiNi3,"Li, Ni",2,0.062328318333333854,Tetragonal,139,I4/mmm,0.0,True,True,0.4027018127597639
mp-1079997,VPt8,"Pt, V",2,0.0,Tetragonal,139,I4/mmm,0.0,False,True,0.20427529234278036
mp-1205768,ZrPt8,"Pt, Zr",2,0.0,Tetragonal,139,I4/mmm,0.0,True,True,0.29855619650098664
mp-1094171,La3Mg,"La, Mg",2,0.04405594625000031,Tetragonal,139,I4/mmm,0.0,True,True,0.09093266739736605
mp-1183647,CdAg3,"Ag, Cd",2,0.0,Tetragonal,139,I4/mmm,0.0,True,True,0.10392304845413264
mp-1094220,Hf3Mg,"Hf, Mg",2,0.08607279625000164,Tetragonal,139,I4/mmm,0.047099999999999476,True,False,0.004330127018922197
mp-1187474,Ti3Zn,"Ti, Zn",2,0.011189639166667043,Tetragonal,139,I4/mmm,0.0,True,True,0.04763139720814407
mp-1222990,La4Mg,"La, Mg",2,0.022756189999999954,Tetragonal,139,I4/mmm,0.0,True,True,0.08399999999999999
mp-1183356,Ba3Na,"Ba, Na",2,0.07501271854166691,Tetragonal,139,I4/mmm,0.0,True,True,0.01732050807568879
mp-1184054,CuNi3,"Cu, Ni",2,0.0430200825,Tetragonal,139,I4/mmm,0.0,True,True,0.004330127018922197
mp-1183342,Ba3Ca,"Ba, Ca",2,0.03921404749999979,Tetragonal,139,I4/mmm,0.0,True,True,0.04763139720814412
mp-974430,Re3Ir,"Ir, Re",2,0.01332998000000174,Tetragonal,139,I4/mmm,0.0,True,True,0.1299038105676659
mp-1094961,Mg3Al,"Al, Mg",2,0.045159970520833426,Tetragonal,139,I4/mmm,0.0,True,True,0.1299038105676658
mp-1185927,MgPd3,"Mg, Pd",2,0.009281103749993136,Tetragonal,139,I4/mmm,0.0,True,True,0.3853813046840752
mp-570197,Bi2Pd,"Bi, Pd",2,0.048686823333336626,Tetragonal,139,I4/mmm,0.0,False,True,0.08485281374238578
mp-1009834,Al2Ru,"Al, Ru",2,0.019733673333332646,Tetragonal,139,I4/mmm,0.0,False,True,0.2781286672667087
mp-972069,Ti3Ga,"Ga, Ti",2,0.012396137499999682,Tetragonal,139,I4/mmm,0.0,True,True,0.11691342951089922
mp-1186034,Na3Ag,"Ag, Na",2,0.08352711062500084,Tetragonal,139,I4/mmm,0.0,True,True,0.43301270189221924
mp-1018179,AlAu2,"Al, Au",2,0.015901574166669263,Tetragonal,139,I4/mmm,0.0,False,True,0.4384062043356594
mp-974862,Rb3Na,"Na, Rb",2,0.05640515403017199,Tetragonal,139,I4/mmm,0.0,True,True,0.04763139720814417
mp-974738,KSr3,"K, Sr",2,0.09926039425000077,Tetragonal,139,I4/mmm,0.0,True,True,0.05629165124598852
mp-974616,Pt3Rh,"Pt, Rh",2,0.0,Tetragonal,139,I4/mmm,0.0,True,True,0.0
mp-30383,Hf2Au,"Au, Hf",2,0.0,Tetragonal,139,I4/mmm,0.0,False,True,0.5845416057808793
mp-1188030,Zr3Cd,"Cd, Zr",2,0.020268713749995726,Tetragonal,139,I4/mmm,0.0,True,True,0.1558845726811989
mp-1185253,LiTl3,"Li, Tl",2,0.046669947499999864,Tetragonal,139,I4/mmm,0.0,True,True,0.2771281292110204
mp-1185879,MgHg3,"Hg, Mg",2,0.04700923624999653,Tetragonal,139,I4/mmm,0.0,True,True,0.2987787643056313
mp-1135,NbPd3,"Nb, Pd",2,0.004146504166666176,Tetragonal,139,I4/mmm,0.0,False,True,0.2598076211353316
mp-13452,BePd2,"Be, Pd",2,0.0,Tetragonal,139,I4/mmm,0.0,False,True,0.29698484809835
mp-971832,ZnIn3,"In, Zn",2,0.09154063250000277,Tetragonal,139,I4/mmm,0.0,True,True,0.05629165124598856
mp-30305,Sr11Bi10,"Bi, Sr",2,0.0,Tetragonal,139,I4/mmm,0.0,False,True,0.5343930797819344
mp-1181275,La11Sn10,"La, Sn",2,0.0,Tetragonal,139,I4/mmm,0.0,True,True,0.4295121949649191
mp-29619,Sr2Bi,"Bi, Sr",2,0.025634754166659057,Tetragonal,139,I4/mmm,0.0,False,True,0.5044028372464039
mp-1100766,Ni3Pt,"Ni, Pt",2,0.00030011249999972733,Tetragonal,139,I4/mmm,0.0,True,True,0.1602146997001211
mp-2775,SrAl4,"Al, Sr",2,0.0,Tetragonal,139,I4/mmm,0.0,False,True,0.26400000000000007
mp-976408,Li3Ag,"Ag, Li",2,0.0013151149999997003,Tetragonal,139,I4/mmm,0.0,True,True,0.41136206679760834
mp-1183345,Ba3Sr,"Ba, Sr",2,0.01627151249999992,Tetragonal,139,I4/mmm,0.0,True,True,0.025980762113533135
mp-11387,HfGa3,"Ga, Hf",2,0.0,Tetragonal,139,I4/mmm,0.0,False,True,0.22083647796503186
mp-1094249,MgSn3,"Mg, Sn",2,0.05558609437500195,Tetragonal,139,I4/mmm,0.0,True,True,0.2814582562299425
mp-1207004,HfPd2,"Hf, Pd",2,0.0,Tetragonal,139,I4/mmm,0.0,True,True,0.42426406871192857
mp-1190013,TiNi,"Ni, Ti",2,0.03457125624999957,Tetragonal,139,I4/mmm,0.0,False,True,0.18499999999999994
mp-1104067,TiBe12,"Be, Ti",2,0.0,Tetragonal,139,I4/mmm,0.0,False,True,0.007994080650317903
mp-1842,NbAl3,"Al, Nb",2,0.0,Tetragonal,139,I4/mmm,0.0,False,True,0.004330127018922197
mp-978974,SnRh3,"Rh, Sn",2,0.019618336249997093,Tetragonal,139,I4/mmm,0.0,True,True,0.1385640646055101
mp-1184011,Cu3Ag,"Ag, Cu",2,0.09037492083333376,Tetragonal,139,I4/mmm,0.0,True,True,0.012990381056766592
mp-1184268,Ga3Hg,"Ga, Hg",2,0.07500383812499933,Tetragonal,139,I4/mmm,0.0,True,True,0.08227241335952165
mp-1976,CaGa4,"Ca, Ga",2,0.0,Tetragonal,139,I4/mmm,0.0,False,True,0.324
mp-30883,V4Zn5,"V, Zn",2,0.0,Tetragonal,139,I4/mmm,0.0,False,True,0.009938079899999074
mp-976765,Na3Au,"Au, Na",2,0.043376689999998774,Tetragonal,139,I4/mmm,0.0,True,True,0.6971504500464731
mp-1184013,GaHg3,"Ga, Hg",2,0.06658493937499799,Tetragonal,139,I4/mmm,0.0,True,True,0.08227241335952165
mp-1187512,TiAu3,"Au, Ti",2,0.06300898499999619,Tetragonal,139,I4/mmm,0.0,True,True,0.4330127018922193
mp-542915,TiAl3,"Al, Ti",2,0.0,Tetragonal,139,I4/mmm,0.0,False,True,0.03031088913245538
mp-863709,Ir3Rh,"Ir, Rh",2,0.0,Tetragonal,139,I4/mmm,0.0,True,True,0.034641016151377386
mp-1187742,TlIn3,"In, Tl",2,0.028007442500001645,Tetragonal,139,I4/mmm,0.0,True,True,0.06928203230275505
mp-979115,Ti2Ag,"Ag, Ti",2,0.0,Tetragonal,139,I4/mmm,0.0,False,True,0.18384776310850232
mp-1039293,Mg3Cd,"Cd, Mg",2,0.037848721250000494,Tetragonal,139,I4/mmm,0.0,True,True,0.1645448267190433
mp-1184650,Hf3Ga,"Ga, Hf",2,0.07348319500000144,Tetragonal,139,I4/mmm,0.0,True,True,0.22083647796503186
mp-1184018,CuAu3,"Au, Cu",2,0.011761142499999266,Tetragonal,139,I4/mmm,0.0,True,True,0.2771281292110204
mp-27668,Mg2Ga5,"Ga, Mg",2,0.0,Tetragonal,139,I4/mmm,0.0,False,True,0.22587697572631282
mp-1183657,CdBi3,"Bi, Cd",2,0.07995573750000062,Tetragonal,139,I4/mmm,0.0,True,True,0.1428941916244324
mp-1079938,TlPd3,"Pd, Tl",2,0.0,Tetragonal,139,I4/mmm,0.0,False,True,0.25114736709748725
mp-1009238,Hf2Tl,"Hf, Tl",2,0.0,Tetragonal,139,I4/mmm,0.0,True,True,0.15084944665313016
mp-30488,CdHg2,"Cd, Hg",2,0.026849116666667783,Tetragonal,139,I4/mmm,0.0,False,True,0.14613540144521986
mp-1184336,FeIr3,"Fe, Ir",2,0.0,Tetragonal,139,I4/mmm,0.0,True,True,0.1602146997001212
mp-1183658,Cd3Bi,"Bi, Cd",2,0.08853876749999978,Tetragonal,139,I4/mmm,0.0,True,True,0.1428941916244324
mp-1018124,Ti2Rh,"Rh, Ti",2,0.0,Tetragonal,139,I4/mmm,0.0,False,True,0.3488393453853633
mp-1186132,NaCa3,"Ca, Na",2,0.08148771249999953,Tetragonal,139,I4/mmm,0.0,True,True,0.030310889132455332
mp-974376,PtRh3,"Pt, Rh",2,0.0,Tetragonal,139,I4/mmm,0.0,True,True,0.0
mp-31138,MnPd3,"Mn, Pd",2,0.0,Tetragonal,139,I4/mmm,0.0,False,True,0.28145825622994264
mp-1018156,Hf2Cd,"Cd, Hf",2,0.0,Tetragonal,139,I4/mmm,0.0,False,True,0.18384776310850232
mp-1185866,MgGa3,"Ga, Mg",2,0.035344697187500884,Tetragonal,139,I4/mmm,0.0,True,True,0.21650635094610965
mp-1186091,Na3Zn,"Na, Zn",2,0.09068470530835615,Tetragonal,139,I4/mmm,0.0,True,True,0.31176914536239786
mp-999544,YAg2,"Ag, Y",2,0.0,Tetragonal,139,I4/mmm,0.0,False,True,0.3346972097616324
mp-978293,Mg3Pb,"Mg, Pb",2,0.013847861249997706,Tetragonal,139,I4/mmm,0.0,True,True,0.4416729559300637
mp-1380,Zn3Ru,"Ru, Zn",2,0.0,Tetragonal,139,I4/mmm,0.0,False,True,0.23815698604072075
mp-1094514,Mg3Sn,"Mg, Sn",2,0.050043456249999174,Tetragonal,139,I4/mmm,0.0,True,True,0.2814582562299425
mp-1186158,NaIn3,"In, Na",2,0.009501042499998391,Tetragonal,139,I4/mmm,0.0,True,True,0.3680607966083864
mp-2614,HfAl3,"Al, Hf",2,0.013081002499998107,Tetragonal,139,I4/mmm,0.0,False,True,0.13423393758658803
mp-171,VNi3,"Ni, V",2,0.0,Tetragonal,139,I4/mmm,0.0,False,True,0.12124355652982143
mp-1007923,CrNi3,"Cr, Ni",2,0.04015412250000061,Tetragonal,139,I4/mmm,0.0,True,True,0.10825317547305482
mp-1094248,YSn3,"Sn, Y",2,0.06564480749999912,Tetragonal,139,I4/mmm,0.0,True,True,0.3204293994002423
mp-1183408,Be3Pd,"Be, Pd",2,0.07144715125000012,Tetragonal,139,I4/mmm,0.0,True,True,0.2727980021920982
mp-1183958,CsK3,"Cs, K",2,0.017413141250001374,Tetragonal,139,I4/mmm,0.0,True,True,0.012990381056766543
mp-454,NaGa4,"Ga, Na",2,0.0,Tetragonal,139,I4/mmm,0.0,False,True,0.35200000000000004
mp-1104104,Be12Fe,"Be, Fe",2,0.01828542576923109,Tetragonal,139,I4/mmm,0.0,False,True,0.0692820323027551
mp-11416,TaGa3,"Ga, Ta",2,0.0,Tetragonal,139,I4/mmm,0.0,False,True,0.13423393758658803
mp-1007862,Fe3Ni,"Fe, Ni",2,0.07637603750000022,Tetragonal,139,I4/mmm,0.0,True,True,0.034641016151377484
mp-982637,Na3Mg,"Mg, Na",2,0.09973374989585748,Tetragonal,139,I4/mmm,0.0,True,True,0.16454482671904333
mp-1018103,ZrAu2,"Au, Zr",2,0.0,Tetragonal,139,I4/mmm,0.0,False,True,0.5703994701571483
mp-1215363,Zr4Pd,"Pd, Zr",2,0.016882567999999765,Tetragonal,139,I4/mmm,0.0,True,True,0.3480000000000001
mp-2643,Ti3Cu4,"Cu, Ti",2,0.0,Tetragonal,139,I4/mmm,0.0,False,True,0.1781537973499416
mp-973839,PdAu3,"Au, Pd",2,0.0,Tetragonal,139,I4/mmm,0.0,True,True,0.1472243186433545
mp-742,Ti2Cu,"Cu, Ti",2,0.0,Tetragonal,139,I4/mmm,0.0,False,True,0.16970562748477133
mp-1039409,CaMg3,"Ca, Mg",2,0.048412839999999235,Tetragonal,139,I4/mmm,0.0,True,True,0.13423393758658803
mp-22687,BaIn4,"Ba, In",2,0.0,Tetragonal,139,I4/mmm,0.0,False,True,0.35600000000000004
mp-972088,Zr3Zn,"Zn, Zr",2,0.04093808500000051,Tetragonal,139,I4/mmm,0.0,True,True,0.1385640646055101
mp-1185455,LiRh3,"Li, Rh",2,0.06832326749999851,Tetragonal,139,I4/mmm,0.0,True,True,0.562916512459885
mp-978531,Sc3Pb,"Pb, Sc",2,0.051050570000001017,Tetragonal,139,I4/mmm,0.0,True,True,0.42002232083545277
mp-30685,ZrGa3,"Ga, Zr",2,0.013019501250001397,Tetragonal,139,I4/mmm,0.0,False,True,0.20784609690826528
mp-981383,ScSn3,"Sc, Sn",2,0.09364912062499897,Tetragonal,139,I4/mmm,0.0,True,True,0.25980762113533157
mp-11252,MnAu2,"Au, Mn",2,0.0,Tetragonal,139,I4/mmm,0.0,False,True,0.4666904755831213
mp-867347,Al3Tc,"Al, Tc",2,0.05980408690475869,Tetragonal,139,I4/mmm,0.0,True,True,0.12557368354874351
mp-1104193,Be12Co,"Be, Co",2,0.04868433961538443,Tetragonal,139,I4/mmm,0.0,False,True,0.08260550005328487
mp-1094472,MgZr3,"Mg, Zr",2,0.019953511249998,Tetragonal,139,I4/mmm,0.0,True,True,0.008660254037844395
mp-1187100,Sr2Mg,"Mg, Sr",2,0.015657395000000518,Tetragonal,139,I4/mmm,0.0,True,True,0.16970562748477144
mp-975909,LiAu3,"Au, Li",2,0.004237167500001249,Tetragonal,139,I4/mmm,0.0,True,True,0.6754998149518622
mp-1187541,Ti3In,"In, Ti",2,0.004948112499999269,Tetragonal,139,I4/mmm,0.0,True,True,0.10392304845413264
mp-570578,ZrIn3,"In, Zr",2,0.0,Tetragonal,139,I4/mmm,0.0,False,True,0.1948557158514987
mp-1186437,Pd3W,"Pd, W",2,0.011338474999998738,Tetragonal,139,I4/mmm,0.0,True,True,0.06928203230275497
mp-567872,Ba2Bi,"Ba, Bi",2,0.023592227777780028,Tetragonal,139,I4/mmm,0.0,False,True,0.5326871084938658
mp-976055,Li3In,"In, Li",2,0.016660156964284134,Tetragonal,139,I4/mmm,0.0,True,True,0.34641016151377546
mp-1199133,Y11Sn10,"Sn, Y",2,0.0,Tetragonal,139,I4/mmm,0.014699999999999491,False,False,0.3695802607837677
mp-1184016,CsRb3,"Cs, Rb",2,0.04310848696120617,Tetragonal,139,I4/mmm,0.0,True,True,0.012990381056766543
mp-1184633,Hf3Sn,"Hf, Sn",2,0.011843909166664446,Tetragonal,139,I4/mmm,0.0,True,True,0.28578838324886474
mp-1183335,BaSr3,"Ba, Sr",2,0.01226519000000037,Tetragonal,139,I4/mmm,0.0,True,True,0.025980762113533135
mp-30501,Ti2Cd,"Cd, Ti",2,0.0,Tetragonal,139,I4/mmm,0.0,False,True,0.07071067811865471
mp-973174,NaAg3,"Ag, Na",2,0.07214084708333246,Tetragonal,139,I4/mmm,0.0,True,True,0.43301270189221924
mp-982205,Rb3Cd,"Cd, Rb",2,0.08117697798076928,Tetragonal,139,I4/mmm,0.0,True,True,0.37672105064623085
mp-568912,Be12Nb,"Be, Nb",2,0.0,Tetragonal,139,I4/mmm,0.0,False,True,0.007994080650317903
mp-568718,HfAl3,"Al, Hf",2,0.0,Tetragonal,139,I4/mmm,0.0,False,True,0.13423393758658803
mp-1184265,GaRh3,"Ga, Rh",2,0.019763532500001624,Tetragonal,139,I4/mmm,0.0,True,True,0.20351596988934298
mp-335,BaGa4,"Ba, Ga",2,0.0,Tetragonal,139,I4/mmm,0.0,False,True,0.36800000000000005
mp-1183511,CaAg3,"Ag, Ca",2,0.07181194500000032,Tetragonal,139,I4/mmm,0.0,True,True,0.4027018127597639
mp-11513,NbNi3,"Nb, Ni",2,0.00901634874999857,Tetragonal,139,I4/mmm,0.0,False,True,0.13423393758658791
mp-1903,BaAl4,"Al, Ba",2,0.0,Tetragonal,139,I4/mmm,0.0,False,True,0.28800000000000003
mp-1206428,Li3Mg5,"Li, Mg",2,0.026798313125000472,Tetragonal,139,I4/mmm,0.0,True,True,0.15976056303105599
mp-975298,RbNa3,"Na, Rb",2,0.07112804709051779,Tetragonal,139,I4/mmm,0.0,True,True,0.04763139720814417
mp-1018154,Hf2Hg,"Hf, Hg",2,0.0,Tetragonal,139,I4/mmm,0.0,False,True,0.3299831645537222
mp-1187816,YAg3,"Ag, Y",2,0.05139493641304327,Tetragonal,139,I4/mmm,0.0,True,True,0.3074390183434757
mp-21187,CaIn,"Ca, In",2,0.0,Tetragonal,139,I4/mmm,0.0,False,True,0.39
mp-1189328,TiNi,"Ni, Ti",2,0.022365216111110975,Trigonal,143,P3,0.0,False,True,0.18499999999999994
mp-571406,Ga2Pt,"Ga, Pt",2,0.009185573541667935,Tetragonal,142,I4_1/acd,0.0,False,True,0.22156012477178477
mp-1573,Sn2Pd,"Pd, Sn",2,0.0070368554166684305,Tetragonal,142,I4_1/acd,0.0,False,True,0.1131370849898477
mp-21526,KPb,"K, Pb",2,0.0,Tetragonal,142,I4_1/acd,0.37349999999999994,False,False,0.7550000000000001
mp-1188303,Sn4Rh,"Rh, Sn",2,0.0,Tetragonal,142,I4_1/acd,0.0,False,True,0.12799999999999995
mp-31277,Sn4Ir,"Ir, Sn",2,0.027021374500002082,Tetragonal,142,I4_1/acd,0.0,False,True,0.09600000000000009
mp-11055,CsSn,"Cs, Sn",2,0.0012611442187520083,Tetragonal,142,I4_1/acd,0.7471999999999999,False,False,0.585
mp-985707,CoSn3,"Co, Sn",2,0.0,Tetragonal,142,I4_1/acd,0.0,False,True,0.03464101615137758
mp-30792,NaPb,"Na, Pb",2,0.0,Tetragonal,142,I4_1/acd,0.0,False,True,0.7
mp-669566,ZnAu3,"Au, Zn",2,0.0,Tetragonal,142,I4_1/acd,0.0,False,True,0.3853813046840752
mp-11051,NaSn,"Na, Sn",2,0.0,Tetragonal,142,I4_1/acd,0.34289999999999976,False,False,0.5149999999999999
mp-21525,RbPb,"Pb, Rb",2,0.0,Tetragonal,142,I4_1/acd,0.40500000000000025,False,False,0.7550000000000001
mp-11054,RbSn,"Rb, Sn",2,0.0,Tetragonal,142,I4_1/acd,0.7438000000000002,False,False,0.5700000000000001
mp-542374,KSn,"K, Sn",2,0.0,Tetragonal,142,I4_1/acd,0.7336999999999998,False,False,0.5700000000000001
mp-1018026,LiAg,"Ag, Li",2,0.014274759999999276,Tetragonal,141,I4_1/amd,0.0,False,True,0.475
mp-20800,ZrIn2,"In, Zr",2,0.0,Tetragonal,141,I4_1/amd,0.0,False,True,0.21213203435596423
mp-31216,BaCd11,"Ba, Cd",2,0.0,Tetragonal,141,I4_1/amd,0.0,False,True,0.22110831935702663
mp-571191,LaZn11,"La, Zn",2,0.0,Tetragonal,141,I4_1/amd,0.0,False,True,0.15201196955795576
mp-11440,HfGa2,"Ga, Hf",2,0.0,Tetragonal,141,I4_1/amd,0.0,False,True,0.24041630560342614
mp-569954,SrCd11,"Cd, Sr",2,0.0029835499305534974,Tetragonal,141,I4_1/amd,0.0,False,True,0.20452519540524966
mp-1077017,HfV2,"Hf, V",2,0.038371425000001125,Tetragonal,141,I4_1/amd,0.0,True,True,0.15556349186104038
mp-30682,ZrGa,"Ga, Zr",2,0.0,Tetragonal,141,I4_1/amd,0.0,False,True,0.24
mp-1200584,La3Zn22,"La, Zn",2,0.0,Tetragonal,141,I4_1/amd,0.0,False,True,0.17872884490199106
mp-1102064,MgAl2,"Al, Mg",2,0.04160550583333311,Tetragonal,141,I4_1/amd,0.0,False,True,0.14142135623730953
mp-2398,ScSn2,"Sc, Sn",2,0.0,Tetragonal,141,I4_1/amd,0.0,False,True,0.28284271247461895
mp-13444,LiSn,"Li, Sn",2,0.00018131666666709734,Tetragonal,141,I4_1/amd,0.0,False,True,0.49
mp-567705,TiAl2,"Al, Ti",2,0.0,Tetragonal,141,I4_1/amd,0.0,False,True,0.03299831645537225
mp-18567,CaZn11,"Ca, Zn",2,0.0,Tetragonal,141,I4_1/amd,0.0,False,True,0.17965050947758415
mp-571342,TiGa2,"Ga, Ti",2,0.0,Tetragonal,141,I4_1/amd,0.0,False,True,0.12727922061357858
mp-18026,SrZn11,"Sr, Zn",2,0.011865761979167999,Tetragonal,141,I4_1/amd,0.0,False,True,0.1934697794373983
mp-31503,Mg9Sn5,"Mg, Sn",2,0.005285322321428865,Trigonal,146,R3,0.0,False,True,0.31145232543747065
mp-1228988,AlAg3,"Ag, Al",2,0.0,Trigonal,146,R3,0.0,True,True,0.1385640646055101
mp-1198800,Bi3Pd8,"Bi, Pd",2,0.014650359090913057,Trigonal,146,R3,0.0,False,True,0.08016511885472226
mp-1208546,Ta24Al19,"Al, Ta",2,0.0008361397116232183,Monoclinic,14,P2_1/c,0.0,True,True,0.054626911987136983
mp-30590,LaCu6,"Cu, La",2,0.011282394375005111,Monoclinic,14,P2_1/c,0.0,False,True,0.279941684889506
mp-31104,KBi,"Bi, K",2,0.0,Monoclinic,14,P2_1/c,0.4058999999999999,False,False,0.6000000000000001
mp-1212012,K10Tl7,"K, Tl",2,0.0,Monoclinic,14,P2_1/c,0.0,True,True,0.3937223654278003
mp-1190908,Ga9Rh2,"Ga, Rh",2,0.0031284404545450784,Monoclinic,14,P2_1/c,0.0,False,True,0.18127646572236936
mp-845,Cu5Sn4,"Cu, Sn",2,0.02435406944444196,Monoclinic,14,P2_1/c,0.0,False,True,0.029814239699997223
mp-1191778,Al9Fe2,"Al, Fe",2,0.017882146818181788,Monoclinic,14,P2_1/c,0.0,False,True,0.0848528137423857
mp-16488,Al9Co2,"Al, Co",2,0.0,Monoclinic,14,P2_1/c,0.0,False,True,0.10413754413838237
mp-574070,Cs4Pb9,"Cs, Pb",2,0.0,Monoclinic,14,P2_1/c,0.7601999999999998,False,False,0.7107692307692308
mp-31105,RbBi,"Bi, Rb",2,0.0,Monoclinic,14,P2_1/c,0.37770000000000015,False,False,0.6000000000000001
mp-570900,K4Sn9,"K, Sn",2,0.0,Monoclinic,14,P2_1/c,1.1220999999999997,False,False,0.5261538461538462
mp-1191262,Ga9Ir2,"Ga, Ir",2,0.0026553663636370572,Monoclinic,14,P2_1/c,0.0,False,True,0.1504208970887747
mp-1645,Al9Rh2,"Al, Rh",2,0.0,Monoclinic,14,P2_1/c,0.0,False,True,0.2584153873063564
mp-1101783,Bi2Ir,"Bi, Ir",2,0.0,Monoclinic,14,P2_1/c,0.0,False,True,0.08485281374238578
mp-23217,Bi2Rh,"Bi, Rh",2,0.0,Monoclinic,14,P2_1/c,0.0,False,True,0.12256517540566814
mp-1205121,CsBi,"Bi, Cs",2,0.0,Monoclinic,14,P2_1/c,0.24520000000000008,False,False,0.615
mp-573425,Y8Co5,"Co, Y",2,0.0012234444230774244,Monoclinic,14,P2_1/c,0.0,False,True,0.3210928085709431
mp-571264,Ca5Au4,"Au, Ca",2,0.0,Monoclinic,14,P2_1/c,0.0,False,True,0.765232152299928
mp-12003,Al9Ir2,"Al, Ir",2,0.0,Monoclinic,14,P2_1/c,0.0,False,True,0.22755981867276168
mp-1216292,Y4Co3,"Co, Y",2,0.03309995845238145,Trigonal,147,P-3,0.0,True,True,0.3266152951415597
mp-567550,In3Au7,"Au, In",2,0.0023752138333250628,Trigonal,147,P-3,0.0,False,True,0.34827575281664386
mp-2716,TiNi,"Ni, Ti",2,0.02476340944444555,Trigonal,147,P-3,0.0,False,True,0.18499999999999994
mp-1209131,Sn9Pd13,"Pd, Sn",2,0.006965907840911001,Trigonal,152,P3_121,0.0,True,True,0.11799985992427613
mp-1208852,Sn4Rh,"Rh, Sn",2,0.002812003499999882,Trigonal,152,P3_121,0.0,True,True,0.12799999999999995
mp-569049,Al5Mo,"Al, Mo",2,0.0018279855000002954,Trigonal,150,P321,0.0,False,True,0.20497289793748072