material_id,formula,elements,num_elements,energy_above_hull,crystal_system,spacegroup_number,spacegroup_symbol,band_gap,theoretical,is_metal,electronegativity_difference
mp-1217954,TaNi,"Ni, Ta",2,0.027389137076927028,Trigonal,166,R-3m,0.0,True,True,0.20499999999999996
mp-1039305,MgBi,"Bi, Mg",2,0.06292134499999769,Trigonal,166,R-3m,0.0,True,True,0.355
mp-1094578,LiMg,"Li, Mg",2,0.029401987500000004,Trigonal,166,R-3m,0.0,True,True,0.16500000000000004
mp-9568,Li3Ga2,"Ga, Li",2,0.0,Trigonal,166,R-3m,0.0,False,True,0.40661529730200763
mp-1229015,AgPt,"Ag, Pt",2,0.0031163149999997586,Trigonal,166,R-3m,0.0,True,True,0.17499999999999993
mp-1220390,NbAu4,"Au, Nb",2,0.07323263600000018,Trigonal,166,R-3m,0.0,True,True,0.376
mp-1104956,Ta6Fe7,"Fe, Ta",2,0.0,Trigonal,166,R-3m,0.0,False,True,0.16451111003650726
mp-1224847,FeRh,"Fe, Rh",2,0.07488492499999921,Trigonal,166,R-3m,0.0,True,True,0.22499999999999987
mp-2451,YAl3,"Al, Y",2,0.011892777500001728,Trigonal,166,R-3m,0.0,False,True,0.16887495373796557
mp-567747,Co7Mo6,"Co, Mo",2,0.011532919358973714,Trigonal,166,R-3m,0.0,False,True,0.1395851842734002
mp-1218218,TaFe,"Fe, Ta",2,0.0,Trigonal,166,R-3m,0.0,True,True,0.16500000000000004
mp-1105569,Y2Fe17,"Fe, Y",2,0.020232452105263476,Trigonal,166,R-3m,0.0,False,True,0.18720424504503336
mp-12648,Ti2Be17,"Be, Ti",2,0.0001682199999999412,Trigonal,166,R-3m,0.0,False,True,0.009206766149755746
mp-1103885,Nb6Fe7,"Fe, Nb",2,0.0017899439053259414,Trigonal,166,R-3m,0.0,False,True,0.1146592585102929
mp-1215575,ZnAu4,"Au, Zn",2,0.05841616899999735,Trigonal,166,R-3m,0.0,True,True,0.35600000000000004
mp-21446,BaPb3,"Ba, Pb",2,0.0,Trigonal,166,R-3m,0.0,False,True,0.6235382907247959
mp-16506,Li3Al2,"Al, Li",2,0.0,Trigonal,166,R-3m,0.0,False,True,0.3086357075906805
mp-1221442,MoPd4,"Mo, Pd",2,0.011304352000003348,Trigonal,166,R-3m,0.0,True,True,0.016000000000000014
mp-978288,MgNi,"Mg, Ni",2,0.05829954409722227,Trigonal,166,R-3m,0.0,True,True,0.29999999999999993
mp-1229012,AgPd,"Ag, Pd",2,0.0,Trigonal,166,R-3m,0.0,True,True,0.13500000000000012
mp-1225998,CoPt,"Co, Pt",2,0.05871391499999756,Trigonal,166,R-3m,0.0,True,True,0.19999999999999996
mp-1219535,ReIr3,"Ir, Re",2,0.05176617374999637,Trigonal,166,R-3m,0.0,True,True,0.1299038105676659
mp-1226089,CoPt3,"Co, Pt",2,0.024843599999997856,Trigonal,166,R-3m,0.0,True,True,0.1732050807568877
mp-697180,Mg3In,"In, Mg",2,0.0,Trigonal,166,R-3m,0.0,False,True,0.20351596988934306
mp-1105044,Nb6Ni7,"Nb, Ni",2,0.018445997358976562,Trigonal,166,R-3m,0.0,True,True,0.15454073973126428
mp-2764,LaNi3,"La, Ni",2,0.0017624329166672226,Trigonal,166,R-3m,0.0,False,True,0.35074028853269756
mp-30709,La2Zn17,"La, Zn",2,0.0,Trigonal,166,R-3m,0.0,False,True,0.1687907127455218
mp-1219522,RuRh4,"Rh, Ru",2,0.01354918599999877,Trigonal,166,R-3m,0.0,True,True,0.03199999999999985
mp-27505,Fe3Sn2,"Fe, Sn",2,0.0004480230000005747,Trigonal,166,R-3m,0.0,False,True,0.06368673331236258
mp-1216290,VPd3,"Pd, V",2,0.09440577499999847,Trigonal,166,R-3m,0.0,True,True,0.24681724007856512
mp-570400,Ba7Al10,"Al, Ba",2,0.0,Trigonal,166,R-3m,0.0,False,True,0.35435012888502027
mp-1219709,PtAu,"Au, Pt",2,0.012786540000007562,Trigonal,166,R-3m,0.0,True,True,0.13000000000000012
mp-1215582,ZnNi4,"Ni, Zn",2,0.07282676799999965,Trigonal,166,R-3m,0.0,True,True,0.10400000000000001
mp-1222419,Li4Mg,"Li, Mg",2,0.010894633000000375,Trigonal,166,R-3m,0.0,True,True,0.13200000000000003
mp-569196,YNi3,"Ni, Y",2,0.0,Trigonal,166,R-3m,0.0,False,True,0.2987787643056313
mp-1039529,CaMg2,"Ca, Mg",2,0.007080418333332172,Trigonal,166,R-3m,0.0,True,True,0.14613540144521983
mp-1227959,BaCa3,"Ba, Ca",2,0.038546502500000024,Trigonal,166,R-3m,0.0,True,True,0.04763139720814412
mp-1104237,Nb7Ni6,"Nb, Ni",2,0.0,Trigonal,166,R-3m,0.0,False,True,0.15454073973126428
mp-1219908,PdPt,"Pd, Pt",2,0.0,Trigonal,166,R-3m,0.0,True,True,0.039999999999999813
mp-1102392,YFe3,"Fe, Y",2,0.0,Trigonal,166,R-3m,0.0,False,True,0.26413774815425384
mp-1220052,NiPt,"Ni, Pt",2,0.0400219549999985,Trigonal,166,R-3m,0.0,True,True,0.18499999999999994
mp-1225761,Cu4Au,"Au, Cu",2,0.0940493460000007,Trigonal,166,R-3m,0.0,True,True,0.25600000000000006
mp-1094247,MgSn,"Mg, Sn",2,0.03092936874999941,Trigonal,166,R-3m,0.0,True,True,0.32499999999999996
mp-30441,Be17Nb2,"Be, Nb",2,0.0,Trigonal,166,R-3m,0.0,False,True,0.009206766149755746
mp-1222128,Mg3In,"In, Mg",2,0.07557631749999882,Trigonal,166,R-3m,0.0,True,True,0.20351596988934306
mp-636105,MnGa,"Ga, Mn",2,0.05060490461538514,Trigonal,166,R-3m,0.0,False,True,0.13
mp-2544,Zr2Be17,"Be, Zr",2,0.0,Trigonal,166,R-3m,0.0,False,True,0.0736541291980459
mp-1104372,Nb6Zn7,"Nb, Zn",2,0.0,Trigonal,166,R-3m,0.0,False,True,0.024925925763107065
mp-1216527,TlIn,"In, Tl",2,0.02693615500000135,Trigonal,166,R-3m,0.0,True,True,0.07999999999999996
mp-1219920,PdAu,"Au, Pd",2,0.00044466625000438853,Trigonal,166,R-3m,0.0,True,True,0.16999999999999993
mp-569100,LaRh3,"La, Rh",2,0.0037921279166681643,Trigonal,166,R-3m,0.0,False,True,0.5109549882328187
mp-1215529,ZnCu3,"Cu, Zn",2,0.02499069750000027,Trigonal,166,R-3m,0.0,True,True,0.10825317547305482
mp-1226076,CoNi,"Co, Ni",2,0.030279887499997216,Trigonal,166,R-3m,0.0,True,True,0.015000000000000013
mp-1223654,InPb,"In, Pb",2,0.020862960000002317,Trigonal,166,R-3m,0.0,True,True,0.275
mp-7250,Nb6Co7,"Co, Nb",2,0.005622903410255731,Trigonal,166,R-3m,0.0,False,True,0.13958518427339997
mp-1109,Sr5Al9,"Al, Sr",2,0.0,Trigonal,166,R-3m,0.0,False,True,0.3162438996749703
mp-1226338,CrNi3,"Cr, Ni",2,0.06863412999999952,Trigonal,166,R-3m,0.0,True,True,0.10825317547305482
mp-1223860,IrRu,"Ir, Ru",2,0.034456776875003925,Trigonal,166,R-3m,0.0,True,True,0.0
mp-1220071,NiIr,"Ir, Ni",2,0.03506355500000069,Trigonal,166,R-3m,0.0,True,True,0.14500000000000013
mp-20132,InHg,"Hg, In",2,0.0,Trigonal,166,R-3m,0.0,False,True,0.10999999999999999
mp-1226726,CdAg,"Ag, Cd",2,0.019684965000003274,Trigonal,166,R-3m,0.0,True,True,0.12
mp-1226027,CoIr,"Co, Ir",2,0.04255706250000202,Trigonal,166,R-3m,0.0,True,True,0.16000000000000014
mp-1094310,SrMg2,"Mg, Sr",2,0.010539318333333103,Trigonal,166,R-3m,0.0,True,True,0.16970562748477144
mp-1189382,La2Co7,"Co, La",2,0.029885577391304707,Trigonal,166,R-3m,0.0,False,True,0.3242769735204082
mp-1226736,CdAg3,"Ag, Cd",2,0.03877446749999791,Trigonal,166,R-3m,0.0,True,True,0.10392304845413264
mp-1106140,Y2Co17,"Co, Y",2,0.0,Trigonal,166,R-3m,0.0,False,True,0.2025488552946262
mp-1223665,IrPt,"Ir, Pt",2,0.08143478500000612,Trigonal,166,R-3m,0.0,True,True,0.039999999999999813
mp-27587,Li8Pb3,"Li, Pb",2,0.0,Trigonal,166,R-3m,0.0,False,True,0.6012383914104165
mp-21293,Li3In2,"In, Li",2,0.0,Trigonal,166,R-3m,0.0,False,True,0.3919183588453085
mp-1225677,CuAu,"Au, Cu",2,0.07217244500000009,Trigonal,166,R-3m,0.0,True,True,0.32000000000000006
mp-18063,SrSn3,"Sn, Sr",2,0.027413276041663437,Trigonal,166,R-3m,0.0,False,True,0.4373428289111415
mp-1104334,Nb7Co6,"Co, Nb",2,0.0,Trigonal,166,R-3m,0.0,False,True,0.13958518427339997
mp-567306,Li3Ga7,"Ga, Li",2,0.024923377700000415,Trigonal,166,R-3m,0.0,True,True,0.38035378268133474
mp-1103465,TiBe3,"Be, Ti",2,0.0,Trigonal,166,R-3m,0.0,False,True,0.012990381056766592
mp-644311,CuPt,"Cu, Pt",2,0.0,Trigonal,166,R-3m,0.0,False,True,0.18999999999999995
mp-1221429,MoPd3,"Mo, Pd",2,0.03232882500000045,Trigonal,166,R-3m,0.0,True,True,0.01732050807568879
mp-1105997,Ca2Ni7,"Ca, Ni",2,0.0,Trigonal,166,R-3m,0.0,False,True,0.3783231357738096
mp-1104548,Ta7Co6,"Co, Ta",2,0.0014632612820477675,Trigonal,166,R-3m,0.0,False,True,0.18943703579961432
mp-865373,YCo,"Co, Y",2,0.0,Trigonal,166,R-3m,0.0,True,True,0.32999999999999996
mp-574339,Y2Ni7,"Ni, Y",2,0.0,Trigonal,166,R-3m,0.0,False,True,0.28686039965266885
mp-1224967,FeIr,"Fe, Ir",2,0.06352662833333333,Trigonal,166,R-3m,0.0,True,True,0.18500000000000005
mp-1094479,MgZr,"Mg, Zr",2,0.07173924249999963,Trigonal,166,R-3m,0.0,True,True,0.010000000000000009
mp-1223945,HgAu4,"Au, Hg",2,0.05550472459999867,Trigonal,166,R-3m,0.0,True,True,0.21600000000000003
mp-1188908,La2Ni7,"La, Ni",2,0.0,Trigonal,166,R-3m,0.0,False,True,0.33674916480965467
mp-1189402,Ta2Be17,"Be, Ta",2,0.0,Trigonal,166,R-3m,0.0,False,True,0.021482454349430073
mp-1220057,NiPd,"Ni, Pd",2,0.04264195000000015,Trigonal,166,R-3m,0.0,True,True,0.14500000000000013
mp-1224977,FeCu4,"Cu, Fe",2,0.06159888599999963,Trigonal,166,R-3m,0.0,True,True,0.027999999999999938
mp-1225701,CuPd,"Cu, Pd",2,0.045885379999997866,Trigonal,166,R-3m,0.0,True,True,0.15000000000000013
mp-1095497,YIr3,"Ir, Y",2,0.015700779999995973,Trigonal,166,R-3m,0.0,False,True,0.42435244785437504
mp-1102167,CaNi3,"Ca, Ni",2,2.671666666742567e-05,Trigonal,166,R-3m,0.0,False,True,0.39404155872191954
mp-1224883,FePd3,"Fe, Pd",2,0.045818382500000254,Trigonal,166,R-3m,0.0,True,True,0.1602146997001212
mp-1219734,PtRh,"Pt, Rh",2,0.019327256250001312,Trigonal,166,R-3m,0.0,True,True,0.0
mp-1182452,CrGa,"Cr, Ga",2,0.08224818605769002,Trigonal,166,R-3m,0.0,False,True,0.07500000000000007
mp-1218179,TaCo,"Co, Ta",2,0.006195417666669201,Trigonal,166,R-3m,0.0,True,True,0.18999999999999995
mp-1190346,La2Rh7,"La, Rh",2,0.026713662777778424,Trigonal,166,R-3m,0.0,False,True,0.49057285737702777
mp-1220038,OsPt3,"Os, Pt",2,0.07770958249999893,Trigonal,166,R-3m,0.0,True,True,0.034641016151377386
mp-1229092,AgAu,"Ag, Au",2,0.0010732125000103565,Trigonal,166,R-3m,0.0,True,True,0.30500000000000005
mp-2588,YCo3,"Co, Y",2,0.05055418807692291,Trigonal,166,R-3m,0.0,False,True,0.28578838324886474
mp-1216519,TlHg,"Hg, Tl",2,0.0242475733333265,Trigonal,166,R-3m,0.0,True,True,0.18999999999999995
mp-1221111,NbFe,"Fe, Nb",2,0.0,Trigonal,166,R-3m,0.0,True,True,0.11499999999999999
mp-1223677,Ir4Os,"Ir, Os",2,0.026585212000000524,Trigonal,166,R-3m,0.0,True,True,0.0
mp-1227459,BiPb4,"Bi, Pb",2,0.022429714000002043,Trigonal,166,R-3m,0.0,True,True,0.12400000000000001
mp-1038779,MgAl,"Al, Mg",2,0.0753495687500001,Trigonal,166,R-3m,0.0,True,True,0.15000000000000002
mp-1190236,La2Ir7,"Ir, La",2,0.020186647222223186,Trigonal,166,R-3m,0.0,False,True,0.457313680605704
mp-1216530,TlPb,"Pb, Tl",2,0.0014120250000075885,Trigonal,166,R-3m,0.0,True,True,0.355
mp-1094617,MgGa,"Ga, Mg",2,0.06182554000000007,Trigonal,166,R-3m,0.0,True,True,0.25
mp-1226395,CoMo,"Co, Mo",2,0.009386806602563524,Trigonal,166,R-3m,0.0,True,True,0.14000000000000012
mp-1225687,CuNi,"Cu, Ni",2,0.04142861000000053,Trigonal,166,R-3m,0.0,True,True,0.0050000000000000044
mp-30574,CsGa7,"Cs, Ga",2,0.0,Trigonal,166,R-3m,0.0,False,True,0.3373332921607353
mp-1473,Fe7W6,"Fe, W",2,0.0026645362499966296,Trigonal,166,R-3m,0.0,False,True,0.26421481308893574
mp-571095,Na7Ga13,"Ga, Na",2,0.0,Trigonal,166,R-3m,0.0,False,True,0.41973324862345607
mp-1102049,TaBe3,"Be, Ta",2,0.0,Trigonal,166,R-3m,0.0,False,True,0.03031088913245538
mp-1038972,MgCd,"Cd, Mg",2,0.06349802250000103,Trigonal,166,R-3m,0.0,True,True,0.18999999999999995
mp-1220799,NbNi,"Nb, Ni",2,0.01428379791025769,Trigonal,166,R-3m,0.0,True,True,0.15499999999999992
mp-1229032,AgPt4,"Ag, Pt",2,0.008742394000002207,Trigonal,166,R-3m,0.0,True,True,0.13999999999999996
mp-1103826,Ta7Fe6,"Fe, Ta",2,0.0,Trigonal,166,R-3m,0.0,False,True,0.16451111003650726
mp-1226001,CoPd,"Co, Pd",2,0.09696019249999921,Trigonal,166,R-3m,0.0,True,True,0.16000000000000014
mp-1223919,IrRh,"Ir, Rh",2,0.0,Trigonal,166,R-3m,0.0,True,True,0.039999999999999813
mp-1222034,MgAg4,"Ag, Mg",2,0.09069148666666749,Trigonal,166,R-3m,0.0,True,True,0.24799999999999997
mp-1188333,Y2Co7,"Co, Y",2,0.07389264299145282,Trigonal,166,R-3m,0.0,False,True,0.2743882083634223
mp-1223706,La14Ag51,"Ag, La",2,0.0,Hexagonal,174,P-6,0.0,True,True,0.3412037861288163
mp-1209515,Sr11Hg54,"Hg, Sr",2,0.028206061005016658,Hexagonal,174,P-6,0.0,True,True,0.3937033996092812
mp-1223670,La14Au51,"Au, La",2,0.0,Hexagonal,174,P-6,0.0,True,True,0.5919680144885489
mp-1216365,Y14Ag51,"Ag, Y",2,0.0,Hexagonal,174,P-6,0.0,True,True,0.2918731182547706
mp-1216441,Zr14Cu51,"Cu, Zr",2,0.0,Hexagonal,174,P-6,0.0,True,True,0.2343206724017172
mp-1224756,Hf14Cu51,"Cu, Hf",2,0.0,Hexagonal,174,P-6,0.0,True,True,0.24665333937022865
mp-1227899,Ca14Hg51,"Ca, Hg",2,0.04105243992308516,Hexagonal,174,P-6,0.0,True,True,0.4110888989503812
mp-1218949,Sr14Hg51,"Hg, Sr",2,0.014437364881270676,Hexagonal,174,P-6,0.0,True,True,0.4316433438979002
mp-30749,Zr5Ir3,"Ir, Zr",2,0.0,Hexagonal,178,P6_122,0.0,True,True,0.42118693890005665
mp-1212499,Hf5Ir3,"Hf, Ir",2,0.0,Hexagonal,178,P6_122,0.0,True,True,0.4357106264483344
mp-30597,Cu10Sn3,"Cu, Sn",2,0.03160750653846023,Hexagonal,176,P6_3/m,0.0,False,True,0.025279502654084615
mp-1205786,Y3Ru2,"Ru, Y",2,0.07173728599999851,Hexagonal,176,P6_3/m,0.0,True,True,0.480099989585503
mp-643067,Mg3Sn,"Mg, Sn",2,0.03617427374999904,Hexagonal,176,P6_3/m,0.0,False,True,0.2814582562299425
mp-510099,In3Au10,"Au, In",2,0.0,Hexagonal,176,P6_3/m,0.0,False,True,0.32020703361840486
mp-2137,Mg2Ni,"Mg, Ni",2,0.0,Hexagonal,180,P6_222,0.0,False,True,0.28284271247461895
mp-30047,Sn2Mo,"Mo, Sn",2,0.06053427666666522,Hexagonal,180,P6_222,0.0,False,True,0.09428090415820642
mp-1079810,HfSn2,"Hf, Sn",2,0.0011263725555537007,Hexagonal,180,P6_222,0.0,False,True,0.31112698372208086
mp-12524,Al2W,"Al, W",2,0.09311756111111436,Hexagonal,181,P6_422,0.0,False,True,0.3535533905932736
mp-568607,Al5Mo,"Al, Mo",2,0.0,Hexagonal,182,P6_322,0.0,False,True,0.20497289793748072
mp-30337,Al5W,"Al, W",2,0.0,Hexagonal,182,P6_322,0.0,False,True,0.2795084971874736
mp-1227946,BaGa2,"Ba, Ga",2,0.0010873233333321686,Hexagonal,183,P6mm,0.0,True,True,0.43369215912774917
mp-542429,Mg3Rh,"Mg, Rh",2,0.0,Hexagonal,185,P6_3cm,0.0,False,True,0.4200223208354526
mp-18712,Mg3Pd,"Mg, Pd",2,0.0,Hexagonal,185,P6_3cm,0.0,False,True,0.3853813046840752
mp-18707,Mg3Pt,"Mg, Pt",2,0.0,Hexagonal,185,P6_3cm,0.0,False,True,0.4200223208354526
mp-31286,K3Bi,"Bi, K",2,0.0,Hexagonal,185,P6_3cm,0.02499999999999991,False,False,0.5196152422706632
mp-17783,Mg3Au,"Au, Mg",2,0.0,Hexagonal,185,P6_3cm,0.0,False,True,0.5326056233274298
mp-568419,Mg3Ir,"Ir, Mg",2,0.0,Hexagonal,185,P6_3cm,0.0,False,True,0.3853813046840752
mp-30370,Cd3Au,"Au, Cd",2,0.0,Hexagonal,185,P6_3cm,0.0,False,True,0.3680607966083865
mp-1105925,La7Pd3,"La, Pd",2,0.0,Hexagonal,186,P6_3mc,0.0,False,True,0.5040833264451424
mp-1106092,Sr7Ag3,"Ag, Sr",2,0.013513263899998407,Hexagonal,186,P6_3mc,0.0,False,True,0.4490924181056723
mp-1189501,La7Pt3,"La, Pt",2,0.0,Hexagonal,186,P6_3mc,0.0,False,True,0.540743932004789
mp-574272,Ca5Pb3,"Ca, Pb",2,0.038840532291666285,Hexagonal,186,P6_3mc,0.0,True,True,0.6438834813069831
mp-573855,La7Ni3,"La, Ni",2,0.0,Hexagonal,186,P6_3mc,0.0,False,True,0.37118863129142293
mp-1188890,Y7Pt3,"Pt, Y",2,0.017898522250000326,Hexagonal,186,P6_3mc,0.0,False,True,0.485753023665319
mp-570557,NbCo3,"Co, Nb",2,0.0660422908333329,Hexagonal,186,P6_3mc,0.0,False,True,0.12124355652982133
mp-1189031,La7Rh3,"La, Rh",2,0.0,Hexagonal,186,P6_3mc,0.0,False,True,0.540743932004789
mp-1189474,Y7Rh3,"Rh, Y",2,0.0,Hexagonal,186,P6_3mc,0.0,False,True,0.485753023665319
mp-1105837,La7Ir3,"Ir, La",2,0.0,Hexagonal,186,P6_3mc,0.0,False,True,0.5040833264451424
mp-30422,Sr7Au3,"Au, Sr",2,0.0,Hexagonal,186,P6_3mc,0.0,False,True,0.7286295354979786
mp-1094558,LiMg5,"Li, Mg",2,0.01281016250000011,Hexagonal,189,P-62m,0.0,True,True,0.12298373876248846
mp-1185952,MgPt5,"Mg, Pt",2,0.07376923416666425,Hexagonal,189,P-62m,0.0,True,True,0.3614976563624659
mp-976128,Hf5Sc,"Hf, Sc",2,0.0,Hexagonal,189,P-62m,0.0,True,True,0.022360679774997918
mp-1039273,CaMg5,"Ca, Mg",2,0.04566799666666532,Hexagonal,189,P-62m,0.0,True,True,0.11553017883748914
mp-1185817,Mg5In,"In, Mg",2,0.04526100166666569,Hexagonal,189,P-62m,0.0,True,True,0.1751586582374835
mp-1094442,YMg5,"Mg, Y",2,0.05727970166666552,Hexagonal,189,P-62m,0.0,True,True,0.033541019662496875
mp-1185833,MgAg5,"Ag, Mg",2,0.005429561944443773,Hexagonal,189,P-62m,0.0,True,True,0.23106035767497823
mp-1094240,MgSn5,"Mg, Sn",2,0.06381763791666506,Hexagonal,189,P-62m,0.0,True,True,0.24224069756247718
mp-1185819,Mg5Sc,"Mg, Sc",2,0.05215836499999993,Hexagonal,189,P-62m,0.0,True,True,0.018633899812498265
mp-1094651,MgGa5,"Ga, Mg",2,0.028445475624999883,Hexagonal,189,P-62m,0.0,True,True,0.18633899812498245
mp-1200130,Rb5Tl9,"Rb, Tl",2,0.0,Hexagonal,189,P-62m,0.0,False,True,0.383325938999964
mp-1185803,Mg5Cu,"Cu, Mg",2,0.07245300708333335,Hexagonal,189,P-62m,0.0,True,True,0.21988001778747926
mp-865604,Li5Mg,"Li, Mg",2,0.00328050972222238,Hexagonal,189,P-62m,0.0,True,True,0.12298373876248846
mp-1185818,Mg5Pb,"Mg, Pb",2,0.037911707499997505,Hexagonal,189,P-62m,0.0,True,True,0.38013155617496425
mp-1185855,MgBi5,"Bi, Mg",2,0.09802313166666643,Hexagonal,189,P-62m,0.0,True,True,0.2646013773374751
mp-1094576,Li2Mg,"Li, Mg",2,0.01062054944444446,Hexagonal,189,P-62m,0.0,True,True,0.1555634918610405
mp-1185091,La5Mg,"La, Mg",2,0.04952812083333491,Hexagonal,189,P-62m,0.0,True,True,0.07826237921249263
mp-568683,La16Al13,"Al, La",2,0.00441335133620413,Hexagonal,189,P-62m,0.0,False,True,0.2536318828257427
mp-977059,MgPd5,"Mg, Pd",2,0.0029721600000014448,Hexagonal,189,P-62m,0.0,True,True,0.3316834166624688
mp-1094189,Mg5Sn,"Mg, Sn",2,0.06849119916666657,Hexagonal,189,P-62m,0.0,True,True,0.24224069756247718
mp-1094473,Mg5Zn,"Mg, Zn",2,0.06063500576666714,Hexagonal,189,P-62m,0.0,True,True,0.12671051872498804
mp-31326,Mg2In,"In, Mg",2,0.015275971481479633,Hexagonal,189,P-62m,0.0,False,True,0.22156012477178488
mp-1185948,MgPt2,"Mg, Pt",2,0.03932840249999092,Hexagonal,189,P-62m,0.0,True,True,0.4572623851673006
mp-1094448,Mg2Zn,"Mg, Zn",2,0.08588678820000029,Hexagonal,189,P-62m,0.0,True,True,0.1602775370689507
mp-972954,MgCd2,"Cd, Mg",2,0.05262193222222211,Hexagonal,189,P-62m,0.0,True,True,0.179133717900592
mp-1094656,Mg2Ga,"Ga, Mg",2,0.07119463777777746,Hexagonal,189,P-62m,0.0,True,True,0.23570226039551584
mp-1094702,Ca5Mg,"Ca, Mg",2,0.034122293749999866,Hexagonal,189,P-62m,0.0,True,True,0.11553017883748914
mp-567244,Mg2Tl,"Mg, Tl",2,0.014480268611110514,Hexagonal,189,P-62m,0.0,False,True,0.14613540144521986
mp-1094462,MgZn5,"Mg, Zn",2,0.04847130428571189,Hexagonal,189,P-62m,0.0,True,True,0.12671051872498804
mp-1185852,MgAu5,"Au, Mg",2,0.015310412222224734,Hexagonal,189,P-62m,0.0,True,True,0.4583939353874569
mp-1094983,Mg5Bi,"Bi, Mg",2,0.07949393374999936,Hexagonal,189,P-62m,0.0,True,True,0.2646013773374751
mp-1185887,MgHg5,"Hg, Mg",2,0.049670883333328364,Hexagonal,189,P-62m,0.0,True,True,0.2571478174124758
mp-1185814,Mg5Hg,"Hg, Mg",2,0.04079126583333337,Hexagonal,189,P-62m,0.0,True,True,0.2571478174124758
mp-1185816,Mg5Pd,"Mg, Pd",2,0.049426235277777675,Hexagonal,189,P-62m,0.0,True,True,0.3316834166624688
mp-1094747,Mg2Cd,"Cd, Mg",2,0.04721120861111161,Hexagonal,189,P-62m,0.0,True,True,0.179133717900592
mp-578,GaAg2,"Ag, Ga",2,0.0,Hexagonal,189,P-62m,0.0,False,True,0.05656854249492375
mp-1185629,MgIn2,"In, Mg",2,0.0169059996296288,Hexagonal,189,P-62m,0.0,True,True,0.22156012477178486
mp-1094254,Zr5Sn,"Sn, Zr",2,0.06641295916666579,Hexagonal,189,P-62m,0.0,True,True,0.23478713763747788
mp-571598,Ga2Au7,"Au, Ga",2,0.017660370925923985,Hexagonal,189,P-62m,0.0,False,True,0.30348998803833077
mp-1185801,Mg5Ag,"Ag, Mg",2,0.030589565000000984,Hexagonal,189,P-62m,0.0,True,True,0.23106035767497823
mp-1094223,MgSn2,"Mg, Sn",2,0.07632498583333414,Hexagonal,189,P-62m,0.0,True,True,0.30641293851417056
mp-1038937,Ca2Mg,"Ca, Mg",2,0.07382123916666616,Hexagonal,189,P-62m,0.0,True,True,0.14613540144521983
mp-1094629,MgGa2,"Ga, Mg",2,0.05115958333333204,Hexagonal,189,P-62m,0.0,True,True,0.23570226039551584
mp-1094742,MgCd5,"Cd, Mg",2,0.03990362194444552,Hexagonal,189,P-62m,0.0,True,True,0.14161763857498663
mp-1185922,MgIn5,"In, Mg",2,0.0589122148148169,Hexagonal,189,P-62m,0.0,True,True,0.1751586582374835
mp-1094292,Sr5Mg,"Mg, Sr",2,0.07089105083333336,Hexagonal,189,P-62m,0.0,True,True,0.13416407864998742
mp-1094606,Mg5Ga,"Ga, Mg",2,0.05692180999999974,Hexagonal,189,P-62m,0.0,True,True,0.18633899812498247
mp-1094156,LiMg2,"Li, Mg",2,0.035836228333333775,Hexagonal,189,P-62m,0.0,True,True,0.1555634918610405
mp-30650,Mg2Ga,"Ga, Mg",2,0.0,Hexagonal,190,P-62c,0.0,False,True,0.23570226039551584