material_id,formula,elements,num_elements,energy_above_hull,crystal_system,spacegroup_number,spacegroup_symbol,band_gap,theoretical,is_metal,electronegativity_difference
mp-862604,Re3Ni,"Ni, Re",2,0.0,Hexagonal,194,P6_3/mmc,0.0,True,True,0.004330127018922198
mp-1222741,LaY,"La, Y",2,0.07348426249999918,Hexagonal,194,P6_3/mmc,0.0,True,True,0.05999999999999994
mp-261,Ba3Al5,"Al, Ba",2,0.007397125714286634,Hexagonal,194,P6_3/mmc,0.0,False,True,0.34856850115866755
mp-1187827,TlIn3,"In, Tl",2,0.03078497750000153,Hexagonal,194,P6_3/mmc,0.0,True,True,0.06928203230275505
mp-1184058,GaNi3,"Ga, Ni",2,0.0172701875000012,Hexagonal,194,P6_3/mmc,0.0,True,True,0.04330127018922188
mp-1080667,AlCo3,"Al, Co",2,0.09986871625000049,Hexagonal,194,P6_3/mmc,0.0,True,True,0.11691342951089913
mp-7759,BaSn3,"Ba, Sn",2,0.0,Hexagonal,194,P6_3/mmc,0.0,False,True,0.46332359102467463
mp-938875,Mg3Sn,"Mg, Sn",2,0.047047388749999364,Hexagonal,194,P6_3/mmc,0.0,True,True,0.2814582562299425
mp-16511,Mn3Al10,"Al, Mn",2,0.009341258520708884,Hexagonal,194,P6_3/mmc,0.0,False,True,0.025279502654084615
mp-1185255,Li3Rh,"Li, Rh",2,0.0696642879166669,Hexagonal,194,P6_3/mmc,0.0,True,True,0.562916512459885
mp-1183517,CaCd3,"Ca, Cd",2,0.002229437812499624,Hexagonal,194,P6_3/mmc,0.0,True,True,0.2987787643056313
mp-866184,Ti3Pb,"Pb, Ti",2,0.0,Hexagonal,194,P6_3/mmc,0.0,True,True,0.34208003449485325
mp-1184670,Hf3Al,"Al, Hf",2,0.019307109583330373,Hexagonal,194,P6_3/mmc,0.0,True,True,0.13423393758658803
mp-1186013,MnPd3,"Mn, Pd",2,0.014686219999997974,Hexagonal,194,P6_3/mmc,0.0,True,True,0.28145825622994264
mp-30875,Ti2Sn,"Sn, Ti",2,0.0,Hexagonal,194,P6_3/mmc,0.0,False,True,0.19798989873223327
mp-1039495,Mg2Cd,"Cd, Mg",2,0.08823363361111114,Hexagonal,194,P6_3/mmc,0.0,True,True,0.179133717900592
mp-975834,MoRu3,"Mo, Ru",2,0.0,Hexagonal,194,P6_3/mmc,0.0,True,True,0.01732050807568879
mp-567526,SrMg4,"Mg, Sr",2,0.04522772922222229,Hexagonal,194,P6_3/mmc,0.0,False,True,0.14400000000000004
mp-862259,Sc3Al,"Al, Sc",2,0.0,Hexagonal,194,P6_3/mmc,0.0,True,True,0.10825317547305482
mp-978262,MgTl3,"Mg, Tl",2,0.051357820833329626,Hexagonal,194,P6_3/mmc,0.0,True,True,0.13423393758658803
mp-1186976,Sc3Sn,"Sc, Sn",2,0.0,Hexagonal,194,P6_3/mmc,0.0,True,True,0.25980762113533157
mp-1187088,SnHg3,"Hg, Sn",2,0.09606424500000088,Hexagonal,194,P6_3/mmc,0.0,True,True,0.01732050807568879
mp-1116,Sr2Mg17,"Mg, Sr",2,0.023332300263158468,Hexagonal,194,P6_3/mmc,0.0,False,True,0.11048119379706889
mp-20074,SrIn2,"In, Sr",2,0.0,Hexagonal,194,P6_3/mmc,0.0,False,True,0.39126575225655635
mp-984699,BaSr3,"Ba, Sr",2,0.025372261250001582,Hexagonal,194,P6_3/mmc,0.0,True,True,0.025980762113533135
mp-862586,Re3Pd,"Pd, Re",2,0.0,Hexagonal,194,P6_3/mmc,0.0,True,True,0.1299038105676659
mp-1184368,FeRh3,"Fe, Rh",2,0.0,Hexagonal,194,P6_3/mmc,0.0,True,True,0.19485571585149858
mp-1186056,Na3Mg,"Mg, Na",2,0.09083133489585782,Hexagonal,194,P6_3/mmc,0.0,True,True,0.16454482671904333
mp-1183346,BaCa3,"Ba, Ca",2,0.037178258750000026,Hexagonal,194,P6_3/mmc,0.0,True,True,0.04763139720814412
mp-865960,CoRe3,"Co, Re",2,0.0,Hexagonal,194,P6_3/mmc,0.0,True,True,0.008660254037844393
mp-30672,Ti3Ga,"Ga, Ti",2,0.0,Hexagonal,194,P6_3/mmc,0.0,False,True,0.11691342951089922
mp-1183223,AlAu3,"Al, Au",2,0.06608989187500214,Hexagonal,194,P6_3/mmc,0.0,True,True,0.4027018127597639
mp-1184517,In3Ag,"Ag, In",2,0.0847196254861089,Hexagonal,194,P6_3/mmc,0.0,True,True,0.06495190528383286
mp-12735,KAg2,"Ag, K",2,0.009690792916664748,Hexagonal,194,P6_3/mmc,0.0,False,True,0.5232590180780452
mp-11220,Sc2Al,"Al, Sc",2,0.0,Hexagonal,194,P6_3/mmc,0.0,False,True,0.11785113019775792
mp-865022,MnIr3,"Ir, Mn",2,0.0,Hexagonal,194,P6_3/mmc,0.0,True,True,0.28145825622994264
mp-1201649,Ti2Be17,"Be, Ti",2,0.0,Hexagonal,194,P6_3/mmc,0.0,False,True,0.009206766149755746
mp-975341,La3Mg,"La, Mg",2,0.05328924125000167,Hexagonal,194,P6_3/mmc,0.0,True,True,0.09093266739736605
mp-867229,RbSn3,"Rb, Sn",2,0.016086287812498767,Hexagonal,194,P6_3/mmc,0.0,True,True,0.49363448015713
mp-1188042,ZrHg3,"Hg, Zr",2,0.0456927112499983,Hexagonal,194,P6_3/mmc,0.0,True,True,0.2901185102677869
mp-1187258,TaRu3,"Ru, Ta",2,0.020737701249998963,Hexagonal,194,P6_3/mmc,0.0,True,True,0.3031088913245536
mp-1185697,MgBi3,"Bi, Mg",2,0.0825920987499984,Hexagonal,194,P6_3/mmc,0.0,True,True,0.3074390183434757
mp-1199288,Sr13Hg58,"Hg, Sr",2,0.03186516314298826,Hexagonal,194,P6_3/mmc,0.0032000000000000917,False,False,0.4060846965812192
mp-1039217,MgCd2,"Cd, Mg",2,0.092279707222223,Hexagonal,194,P6_3/mmc,0.0,True,True,0.179133717900592
mp-20382,Ti6Sn5,"Sn, Ti",2,0.0,Hexagonal,194,P6_3/mmc,0.0,False,True,0.209130431047427
mp-30494,ScCd3,"Cd, Sc",2,0.0,Hexagonal,194,P6_3/mmc,0.0,False,True,0.14289419162443232
mp-570670,YOs2,"Os, Y",2,0.0,Hexagonal,194,P6_3/mmc,0.0,False,True,0.46197643037521113
mp-1191413,YRh3,"Rh, Y",2,0.0,Hexagonal,194,P6_3/mmc,0.0,False,True,0.4589934640057524
mp-1094309,Sr3Mg,"Mg, Sr",2,0.07363901499999992,Hexagonal,194,P6_3/mmc,0.0,True,True,0.15588457268119899
mp-1186030,Na3Au,"Au, Na",2,0.0450940349999982,Hexagonal,194,P6_3/mmc,0.0,True,True,0.6971504500464731
mp-13548,Cs2Pt,"Cs, Pt",2,0.0,Hexagonal,194,P6_3/mmc,1.6743000000000001,False,False,0.702392735978637
mp-570684,ZrOs2,"Os, Zr",2,0.0,Hexagonal,194,P6_3/mmc,0.0,False,True,0.4101219330881976
mp-1185974,MgPb3,"Mg, Pb",2,0.05420341624999869,Hexagonal,194,P6_3/mmc,0.0,True,True,0.4416729559300637
mp-1095495,YZn2,"Y, Zn",2,0.0331424183333322,Hexagonal,194,P6_3/mmc,0.0,True,True,0.2027039439401436
mp-864889,ZrZn3,"Zn, Zr",2,0.0,Hexagonal,194,P6_3/mmc,0.0,True,True,0.1385640646055101
mp-1188018,Zr3Al,"Al, Zr",2,0.01031160000000142,Hexagonal,194,P6_3/mmc,0.0,True,True,0.12124355652982143
mp-1183654,Cd3Pt,"Cd, Pt",2,0.0020264037500012932,Hexagonal,194,P6_3/mmc,0.0,True,True,0.25547749411640935
mp-977129,HgPd3,"Hg, Pd",2,0.028413377500001502,Hexagonal,194,P6_3/mmc,0.0,True,True,0.08660254037844395
mp-1186042,Na3Ca,"Ca, Na",2,0.07374214000000023,Hexagonal,194,P6_3/mmc,0.0,True,True,0.030310889132455332
mp-570466,Li2Ca,"Ca, Li",2,0.0,Hexagonal,194,P6_3/mmc,0.0,False,True,0.009428090415820642
mp-1190774,Ta6Ga5,"Ga, Ta",2,0.05531340279220842,Hexagonal,194,P6_3/mmc,0.0,False,True,0.15435817529691048
mp-1186088,Na3Tl,"Na, Tl",2,0.011267614062500542,Hexagonal,194,P6_3/mmc,0.0,True,True,0.29877876430563133
mp-1079863,TiCo3,"Co, Ti",2,0.09143691124999975,Hexagonal,194,P6_3/mmc,0.0,True,True,0.1472243186433545
mp-11282,Be2W,"Be, W",2,0.0,Hexagonal,194,P6_3/mmc,0.0,False,True,0.37240957142491493
mp-1187741,VAu3,"Au, V",2,0.07125237874999613,Hexagonal,194,P6_3/mmc,0.0,True,True,0.39404155872191965
mp-1094989,Ca3Mg,"Ca, Mg",2,0.0314536568749999,Hexagonal,194,P6_3/mmc,0.0,True,True,0.13423393758658803
mp-1185970,Mn3Co,"Co, Mn",2,0.0,Hexagonal,194,P6_3/mmc,0.0,True,True,0.14289419162443232
mp-1094431,Mg2Zn,"Mg, Zn",2,0.09092040653333355,Hexagonal,194,P6_3/mmc,0.0,True,True,0.1602775370689507
mp-867345,TcIr3,"Ir, Tc",2,0.0,Hexagonal,194,P6_3/mmc,0.0,True,True,0.1299038105676659
mp-1185214,Li3Ni,"Li, Ni",2,0.09381227749999965,Hexagonal,194,P6_3/mmc,0.0,True,True,0.4027018127597639
mp-972042,Zn3Cu,"Cu, Zn",2,0.0,Hexagonal,194,P6_3/mmc,0.0,True,True,0.10825317547305482
mp-11482,MoIr3,"Ir, Mo",2,0.0,Hexagonal,194,P6_3/mmc,0.0,False,True,0.01732050807568879
mp-972941,NaBi3,"Bi, Na",2,0.019397263750001947,Hexagonal,194,P6_3/mmc,0.0,True,True,0.47198384506251906
mp-865496,VIr3,"Ir, V",2,0.0,Hexagonal,194,P6_3/mmc,0.0,True,True,0.24681724007856512
mp-1186115,NaAu3,"Au, Na",2,0.09304184875000487,Hexagonal,194,P6_3/mmc,0.0,True,True,0.697150450046473
mp-984725,BaTl3,"Ba, Tl",2,0.0025864675000057957,Hexagonal,194,P6_3/mmc,0.0,True,True,0.31609927238132013
mp-1186060,MnOs3,"Mn, Os",2,0.018094478879312703,Hexagonal,194,P6_3/mmc,0.0,True,True,0.28145825622994264
mp-1094451,Mg3Zn,"Mg, Zn",2,0.026793507400000305,Hexagonal,194,P6_3/mmc,0.0,True,True,0.1472243186433545
mp-862689,Cs3Rb,"Cs, Rb",2,0.058968352133620394,Hexagonal,194,P6_3/mmc,0.0,True,True,0.012990381056766543
mp-12109,ZrRe2,"Re, Zr",2,0.0,Hexagonal,194,P6_3/mmc,0.0,False,True,0.268700576850888
mp-980109,SnAu3,"Au, Sn",2,0.06611329749999584,Hexagonal,194,P6_3/mmc,0.0,True,True,0.25114736709748725
mp-30866,Rh3W,"Rh, W",2,0.0,Hexagonal,194,P6_3/mmc,0.0,False,True,0.03464101615137758
mp-21068,CaIn2,"Ca, In",2,0.0,Hexagonal,194,P6_3/mmc,0.0,False,True,0.36769552621700474
mp-975109,RbNa3,"Na, Rb",2,0.06631125584051722,Hexagonal,194,P6_3/mmc,0.0,True,True,0.04763139720814417
mp-1184791,InRh3,"In, Rh",2,0.05737257875000168,Hexagonal,194,P6_3/mmc,0.0,True,True,0.21650635094610957
mp-867352,TcRh3,"Rh, Tc",2,0.0,Hexagonal,194,P6_3/mmc,0.0,True,True,0.1645448267190433
mp-570786,KNa2,"K, Na",2,0.0029021212500008886,Hexagonal,194,P6_3/mmc,0.0,False,True,0.05185449728701353
mp-1102895,TaZn2,"Ta, Zn",2,0.005104389583337365,Hexagonal,194,P6_3/mmc,0.0,False,True,0.07071067811865471
mp-1039262,CaZn3,"Ca, Zn",2,0.06413677166666565,Hexagonal,194,P6_3/mmc,0.0,True,True,0.2814582562299425
mp-1184721,HfCo3,"Co, Hf",2,0.08204294954545688,Hexagonal,194,P6_3/mmc,0.0,True,True,0.25114736709748714
mp-864934,MgAg3,"Ag, Mg",2,0.0,Hexagonal,194,P6_3/mmc,0.0,True,True,0.26846787517317594
mp-13138,Cu3Sn,"Cu, Sn",2,0.03600903500000108,Hexagonal,194,P6_3/mmc,0.0,False,True,0.025980762113533184
mp-1185205,Li3Hg,"Hg, Li",2,0.01553297749999949,Hexagonal,194,P6_3/mmc,0.0,True,True,0.4416729559300637
mp-1196012,Y2Fe17,"Fe, Y",2,0.018991131052631616,Hexagonal,194,P6_3/mmc,0.0,False,True,0.18720424504503336
mp-30489,La2Cd17,"Cd, La",2,0.02209769352941371,Hexagonal,194,P6_3/mmc,0.0,False,True,0.18106640094519613
mp-1185099,KHg3,"Hg, K",2,0.010135949166659941,Hexagonal,194,P6_3/mmc,0.0,True,True,0.5109549882328188
mp-865045,MnRu3,"Mn, Ru",2,0.0,Hexagonal,194,P6_3/mmc,0.0,True,True,0.28145825622994264
mp-12659,Mn2Nb,"Mn, Nb",2,0.0,Hexagonal,194,P6_3/mmc,0.0,False,True,0.023570226039551605
mp-1006132,Hf3Pb,"Hf, Pb",2,0.03169717000000105,Hexagonal,194,P6_3/mmc,0.0,True,True,0.44600308294898594
mp-865733,CoTc3,"Co, Tc",2,0.0,Hexagonal,194,P6_3/mmc,0.0,True,True,0.008660254037844393
mp-866161,VRh3,"Rh, V",2,0.0,Hexagonal,194,P6_3/mmc,0.0,True,True,0.2814582562299425
mp-1184289,Ga3Hg,"Ga, Hg",2,0.08707534437500186,Hexagonal,194,P6_3/mmc,0.0,True,True,0.08227241335952165
mp-976806,NiAu3,"Au, Ni",2,0.08884928249999291,Hexagonal,194,P6_3/mmc,0.0,True,True,0.2727980021920982
mp-1184374,FeIr3,"Fe, Ir",2,0.02980818749999692,Hexagonal,194,P6_3/mmc,0.0,True,True,0.1602146997001212
mp-22469,InNi3,"In, Ni",2,0.05902754499999929,Hexagonal,194,P6_3/mmc,0.0,False,True,0.056291651245988464
mp-1184450,GaPb3,"Ga, Pb",2,0.07881836187500113,Hexagonal,194,P6_3/mmc,0.0,True,True,0.22516660498395405
mp-196,Al5Co2,"Al, Co",2,0.0,Hexagonal,194,P6_3/mmc,0.0,False,True,0.12197356689220883
mp-983235,Tl3Pb,"Pb, Tl",2,0.011133102499996994,Hexagonal,194,P6_3/mmc,0.0,True,True,0.3074390183434757
mp-977207,Li2Mg,"Li, Mg",2,0.019617506111111016,Hexagonal,194,P6_3/mmc,0.0,True,True,0.1555634918610405
mp-865193,Co3Pt,"Co, Pt",2,0.0,Hexagonal,194,P6_3/mmc,0.0,True,True,0.1732050807568877
mp-1184298,FeRe3,"Fe, Re",2,0.014438050624995924,Hexagonal,194,P6_3/mmc,0.0,True,True,0.030310889132455283
mp-974341,RuRh3,"Rh, Ru",2,0.04545359333333465,Hexagonal,194,P6_3/mmc,0.0,True,True,0.034641016151377386
mp-1184933,In3Hg,"Hg, In",2,0.03313379249999926,Hexagonal,194,P6_3/mmc,0.0,True,True,0.09526279441628824
mp-867141,ReOs3,"Os, Re",2,0.0,Hexagonal,194,P6_3/mmc,0.0,True,True,0.1299038105676659
mp-1079267,LiHg3,"Hg, Li",2,0.0,Hexagonal,194,P6_3/mmc,0.0,False,True,0.4416729559300637
mp-862332,LaHg3,"Hg, La",2,0.0,Hexagonal,194,P6_3/mmc,0.0,False,True,0.3897114317029974
mp-972220,TiPt3,"Pt, Ti",2,0.01377564321428082,Hexagonal,194,P6_3/mmc,0.0,True,True,0.3204293994002422
mp-31348,Sc2In,"In, Sc",2,0.0,Hexagonal,194,P6_3/mmc,0.0,False,True,0.19798989873223327
mp-867792,ReIr3,"Ir, Re",2,0.0,Hexagonal,194,P6_3/mmc,0.0,True,True,0.1299038105676659
mp-864931,MgCo2,"Co, Mg",2,0.018079217499996858,Hexagonal,194,P6_3/mmc,0.0,False,True,0.268700576850888
mp-22211,V3Sn,"Sn, V",2,0.03979231499999969,Hexagonal,194,P6_3/mmc,0.0,False,True,0.1428941916244324
mp-1192425,YCo3,"Co, Y",2,0.04071238016025536,Hexagonal,194,P6_3/mmc,0.0,False,True,0.28578838324886474
mp-865910,CdAg3,"Ag, Cd",2,0.003238438749999517,Hexagonal,194,P6_3/mmc,0.0,True,True,0.10392304845413264
mp-973983,NiPd3,"Ni, Pd",2,0.06770055249999984,Hexagonal,194,P6_3/mmc,0.0,True,True,0.1255736835487437
mp-30752,La2Mg17,"La, Mg",2,0.01195087105263104,Hexagonal,194,P6_3/mmc,0.0,False,True,0.06444736304829016
mp-971788,VRu3,"Ru, V",2,0.0356111962499952,Hexagonal,194,P6_3/mmc,0.0,True,True,0.24681724007856512
mp-30739,Mg3Ir,"Ir, Mg",2,0.014463810416667666,Hexagonal,194,P6_3/mmc,0.0,False,True,0.3853813046840752
mp-1094970,Mg3Al,"Al, Mg",2,0.03555407552083345,Hexagonal,194,P6_3/mmc,0.0,True,True,0.1299038105676658
mp-1191285,NbNi2,"Nb, Ni",2,0.08037017744444608,Hexagonal,194,P6_3/mmc,0.0,True,True,0.14613540144521975
mp-2432,CaMg2,"Ca, Mg",2,0.0,Hexagonal,194,P6_3/mmc,0.0,False,True,0.14613540144521983
mp-1191422,TiCo2,"Co, Ti",2,0.051720578333334544,Hexagonal,194,P6_3/mmc,0.0,False,True,0.1602775370689507
mp-1186184,NaSr3,"Na, Sr",2,0.06914578374999714,Hexagonal,194,P6_3/mmc,0.0,True,True,0.008660254037844347
mp-568186,YRu2,"Ru, Y",2,0.0,Hexagonal,194,P6_3/mmc,0.0,False,True,0.46197643037521113
mp-21030,Ti3Sn,"Sn, Ti",2,0.0026197112500021547,Hexagonal,194,P6_3/mmc,0.0,False,True,0.1818653347947321
mp-569979,ZrRu2,"Ru, Zr",2,0.08155004833333024,Hexagonal,194,P6_3/mmc,0.0,False,True,0.4101219330881976
mp-867356,TcRu3,"Ru, Tc",2,0.0,Hexagonal,194,P6_3/mmc,0.0,True,True,0.1299038105676659
mp-1192350,NbFe2,"Fe, Nb",2,0.005451637500000217,Hexagonal,194,P6_3/mmc,0.0,True,True,0.10842303978193728
mp-569866,Cs6K7,"Cs, K",2,0.004067151250001899,Hexagonal,194,P6_3/mmc,0.0,False,True,0.01495555545786425
mp-1183205,Ag3Au,"Ag, Au",2,0.011570367499999179,Hexagonal,194,P6_3/mmc,0.0,True,True,0.26413774815425384
mp-1183306,AlRh3,"Al, Rh",2,0.08391756125000072,Hexagonal,194,P6_3/mmc,0.0,True,True,0.29011851026778684
mp-1186377,OsRh3,"Os, Rh",2,0.08876238875000197,Hexagonal,194,P6_3/mmc,0.0,True,True,0.034641016151377386
mp-1185291,Li3Zn,"Li, Zn",2,0.032175977916666376,Hexagonal,194,P6_3/mmc,0.0,True,True,0.2901185102677869
mp-1187514,Ti3Nb,"Nb, Ti",2,0.07785404749999891,Hexagonal,194,P6_3/mmc,0.0,True,True,0.025980762113533184
mp-1187993,Zn3Co,"Co, Zn",2,0.06749210465909172,Hexagonal,194,P6_3/mmc,0.0,True,True,0.09959292143521044
mp-571557,V6Ga5,"Ga, V",2,0.0,Hexagonal,194,P6_3/mmc,0.0,False,True,0.08962732759175453
mp-23188,In2Bi,"Bi, In",2,0.061025692777775475,Hexagonal,194,P6_3/mmc,0.0,False,True,0.11313708498984759
mp-1185577,CsHg3,"Cs, Hg",2,0.007734481666673787,Hexagonal,194,P6_3/mmc,0.0,True,True,0.5239453692895853
mp-1190681,ZrFe2,"Fe, Zr",2,0.0024678108333340276,Hexagonal,194,P6_3/mmc,0.0,False,True,0.23570226039551584
mp-19713,Sc3In,"In, Sc",2,0.0,Hexagonal,194,P6_3/mmc,0.0,False,True,0.1818653347947321
mp-980200,Zn3Rh,"Rh, Zn",2,0.005577937499998242,Hexagonal,194,P6_3/mmc,0.0,True,True,0.27279800219209815
mp-1185955,MgPb2,"Mg, Pb",2,0.02011396166667323,Hexagonal,194,P6_3/mmc,0.0,True,True,0.4808326112068523
mp-1183216,AlCu3,"Al, Cu",2,0.0025298275000000814,Hexagonal,194,P6_3/mmc,0.0,True,True,0.12557368354874351
mp-1183232,AlNi3,"Al, Ni",2,0.02122097874999973,Hexagonal,194,P6_3/mmc,0.0,True,True,0.12990381056766573
mp-1183662,Cd3Ga,"Cd, Ga",2,0.09590597374999987,Hexagonal,194,P6_3/mmc,0.0,True,True,0.05196152422706637
mp-570463,TaCo2,"Co, Ta",2,0.03950635824999793,Hexagonal,194,P6_3/mmc,0.0,False,True,0.179133717900592
mp-1184027,Cu3Rh,"Cu, Rh",2,0.04562692374999955,Hexagonal,194,P6_3/mmc,0.0,True,True,0.1645448267190433
mp-1184301,Ga3Ag,"Ag, Ga",2,0.08129666614583364,Hexagonal,194,P6_3/mmc,0.0,True,True,0.05196152422706627
mp-867865,ReRh3,"Re, Rh",2,0.0,Hexagonal,194,P6_3/mmc,0.0,True,True,0.1645448267190433
mp-2772,ZrAl2,"Al, Zr",2,0.0,Hexagonal,194,P6_3/mmc,0.0,False,True,0.13199326582148888
mp-485,ZrNi3,"Ni, Zr",2,0.0,Hexagonal,194,P6_3/mmc,0.0,False,True,0.25114736709748714
mp-542614,VCo3,"Co, V",2,0.08504460749999865,Hexagonal,194,P6_3/mmc,0.0,False,True,0.10825317547305482
mp-1124,MgZn2,"Mg, Zn",2,0.0,Hexagonal,194,P6_3/mmc,0.0,False,True,0.1602775370689507
mp-985475,Fe3Mo,"Fe, Mo",2,0.08414985374999873,Hexagonal,194,P6_3/mmc,0.0,True,True,0.1428941916244324
mp-1102043,LaOs2,"La, Os",2,0.002787558055555195,Hexagonal,194,P6_3/mmc,0.0,False,True,0.5185449728701349
mp-569265,Mg3Pt,"Mg, Pt",2,0.018898404999998508,Hexagonal,194,P6_3/mmc,0.0,False,True,0.4200223208354526
mp-978270,MgZr3,"Mg, Zr",2,0.04141552624999889,Hexagonal,194,P6_3/mmc,0.0,True,True,0.008660254037844395
mp-11284,CaGa2,"Ca, Ga",2,0.0,Hexagonal,194,P6_3/mmc,0.0,False,True,0.3818376618407357
mp-1185342,LiAg3,"Ag, Li",2,0.008258951249999313,Hexagonal,194,P6_3/mmc,0.0,True,True,0.41136206679760834
mp-12174,HfNi3,"Hf, Ni",2,0.0,Hexagonal,194,P6_3/mmc,0.0,False,True,0.2641377481542537
mp-973316,NaLi3,"Li, Na",2,0.04065985874999978,Hexagonal,194,P6_3/mmc,0.0,True,True,0.02165063509461094
mp-974747,MnCu3,"Cu, Mn",2,0.09274921801724112,Hexagonal,194,P6_3/mmc,0.0,True,True,0.15155444566227672
mp-1186968,Sc3Ga,"Ga, Sc",2,0.02340561562500021,Hexagonal,194,P6_3/mmc,0.0,True,True,0.1948557158514987
mp-1102436,YCu2,"Cu, Y",2,0.07344588583333156,Hexagonal,194,P6_3/mmc,0.0,True,True,0.3205550741379015
mp-1184700,Hg3Pb,"Hg, Pb",2,0.06834607812499627,Hexagonal,194,P6_3/mmc,0.0,True,True,0.1428941916244324
mp-31498,BaPt,"Ba, Pt",2,0.0,Hexagonal,194,P6_3/mmc,0.0,False,True,0.6949999999999998
mp-1205873,MgHg3,"Hg, Mg",2,0.03156055874999275,Hexagonal,194,P6_3/mmc,0.0,True,True,0.2987787643056313
mp-972876,Sc3Cd,"Cd, Sc",2,0.005746059999999886,Hexagonal,194,P6_3/mmc,0.0,True,True,0.14289419162443232
mp-1095697,LaMg2,"La, Mg",2,0.028436601666667283,Hexagonal,194,P6_3/mmc,0.0,False,True,0.09899494936611664
mp-30745,Ir3W,"Ir, W",2,0.0,Hexagonal,194,P6_3/mmc,0.0,False,True,0.06928203230275497
mp-1093999,Zn2Ag,"Ag, Zn",2,0.0,Hexagonal,194,P6_3/mmc,0.0,True,True,0.13199326582148888
mp-1079240,LiAl,"Al, Li",2,0.08662110999999939,Hexagonal,194,P6_3/mmc,0.0,False,True,0.31500000000000006
mp-13503,ScZn2,"Sc, Zn",2,0.0,Hexagonal,194,P6_3/mmc,0.0,False,True,0.1367073110293991
mp-30428,BaCu,"Ba, Cu",2,0.0,Hexagonal,194,P6_3/mmc,0.0,False,True,0.5049999999999999
mp-1185155,KBa3,"Ba, K",2,0.0967992269375002,Hexagonal,194,P6_3/mmc,0.0,True,True,0.03031088913245538
mp-570963,TaCr2,"Cr, Ta",2,0.07452002505555555,Hexagonal,194,P6_3/mmc,0.0,False,True,0.07542472332656502
mp-1187077,SnRh3,"Rh, Sn",2,0.014290054999999136,Hexagonal,194,P6_3/mmc,0.0,True,True,0.1385640646055101
mp-862655,Ru3W,"Ru, W",2,0.0,Hexagonal,194,P6_3/mmc,0.0,True,True,0.06928203230275497
mp-1677,Be2Mo,"Be, Mo",2,0.0,Hexagonal,194,P6_3/mmc,0.0,False,True,0.2781286672667087
mp-1185931,Mn3Pt,"Mn, Pt",2,0.010748121034483304,Hexagonal,194,P6_3/mmc,0.0,True,True,0.31609927238132
mp-1187176,SrCa3,"Ca, Sr",2,0.0009647012499982566,Hexagonal,194,P6_3/mmc,0.0,True,True,0.021650635094610987
mp-1191009,NbCo2,"Co, Nb",2,0.015001669222222347,Hexagonal,194,P6_3/mmc,0.0,False,True,0.13199326582148876
mp-956096,HfFe2,"Fe, Hf",2,0.013042935833334823,Hexagonal,194,P6_3/mmc,0.0,False,True,0.2498443960192468
mp-1184004,CuAu3,"Au, Cu",2,0.015877042500001437,Hexagonal,194,P6_3/mmc,0.0,True,True,0.2771281292110204
mp-1185151,KSn3,"K, Sn",2,0.05729916087053466,Hexagonal,194,P6_3/mmc,0.0,True,True,0.49363448015713
mp-862783,KTl3,"K, Tl",2,0.01626907089285501,Hexagonal,194,P6_3/mmc,0.0,True,True,0.3464101615137755
mp-30401,KAu2,"Au, K",2,0.0,Hexagonal,194,P6_3/mmc,0.0,False,True,0.8108157757605746
mp-865598,YGa3,"Ga, Y",2,0.0,Hexagonal,194,P6_3/mmc,0.0,True,True,0.2554774941164094
mp-1184009,GaCo3,"Co, Ga",2,0.05169204124999993,Hexagonal,194,P6_3/mmc,0.0,True,True,0.030310889132455283
mp-862620,IrRu3,"Ir, Ru",2,0.0,Hexagonal,194,P6_3/mmc,0.0,True,True,0.0
mp-568077,TaFe2,"Fe, Ta",2,0.0,Hexagonal,194,P6_3/mmc,0.0,False,True,0.1555634918610405