material_id,formula,elements,num_elements,energy_above_hull,crystal_system,spacegroup_number,spacegroup_symbol,band_gap,theoretical,is_metal,electronegativity_difference,atomic_concentrations
mp-230,SbO2,"O, Sb",2,0.0015151433333091546,Orthorhombic,33,Pna2_1,1.8897000000000004,False,False,0.6553,Sb: 0.3333; O: 0.6667
mp-729728,CO2,"C, O",2,0.017961964166667954,Orthorhombic,33,Pna2_1,6.453099999999999,False,False,0.4196,C: 0.3333; O: 0.6667
mp-402,CdP2,"Cd, P",2,0.000841278750000285,Orthorhombic,33,Pna2_1,1.4897999999999998,False,False,0.2357,Cd: 0.3333; P: 0.6667
mp-1190691,LaS2,"La, S",2,0.0009366491666682464,Orthorhombic,33,Pna2_1,0.6423000000000005,False,False,0.6977,La: 0.3333; S: 0.6667
mp-641661,XeF6,"F, Xe",2,0.007340873392857272,Orthorhombic,33,Pna2_1,2.5833,False,False,0.4829,Xe: 0.1429; F: 0.8571
mp-2254,Al2O3,"Al, O",2,0.020825458749999193,Orthorhombic,33,Pna2_1,4.8274,False,False,0.8965,Al: 0.4000; O: 0.6000
mp-616204,Ga3Cl7,"Cl, Ga",2,0.0,Orthorhombic,33,Pna2_1,4.1427,False,False,0.6186,Ga: 0.3000; Cl: 0.7000
mp-2414,SO3,"O, S",2,0.0036010779166666396,Orthorhombic,33,Pna2_1,5.1448,False,False,0.3724,S: 0.2500; O: 0.7500
mp-29611,B5H8,"B, H",2,0.032704372639860146,Orthorhombic,33,Pna2_1,5.4267,False,False,0.0778,B: 0.3846; H: 0.6154
mp-2412,LiP5,"Li, P",2,0.007694938690475439,Orthorhombic,33,Pna2_1,1.2571000000000003,False,False,0.4509,Li: 0.1667; P: 0.8333
mp-1194880,W5I16,"I, W",2,0.0,Orthorhombic,33,Pna2_1,0.8664999999999998,False,False,0.1278,W: 0.2381; I: 0.7619
mp-2447,P4Se5,"P, Se",2,0.007723663437500861,Orthorhombic,33,Pna2_1,1.8240999999999998,False,False,0.1789,P: 0.4444; Se: 0.5556
mp-8781,SnS,"S, Sn",2,0.07821957875000152,Orthorhombic,39,Aem2,1.456,False,False,0.3100,Sn: 0.5000; S: 0.5000
mp-554134,SnS,"S, Sn",2,0.07869257624999904,Orthorhombic,39,Aem2,1.6680000000000001,False,False,0.3100,Sn: 0.5000; S: 0.5000
mp-505634,Cs2Te3,"Cs, Te",2,0.0,Orthorhombic,36,Cmc2_1,0.5258000000000003,False,False,0.6418,Cs: 0.4000; Te: 0.6000
mp-16964,SiO2,"O, Si",2,0.012128847222223627,Orthorhombic,36,Cmc2_1,5.6779,False,False,0.7260,Si: 0.3333; O: 0.6667
mp-7447,Rb2Se3,"Rb, Se",2,0.0,Orthorhombic,36,Cmc2_1,0.6811999999999999,False,False,0.8475,Rb: 0.4000; Se: 0.6000
mp-570044,NbI4,"I, Nb",2,0.0,Orthorhombic,36,Cmc2_1,0.47750000000000004,False,False,0.4240,Nb: 0.2000; I: 0.8000
mp-28035,BaP10,"Ba, P",2,0.0036162985064951414,Orthorhombic,36,Cmc2_1,1.2963000000000005,False,False,0.3737,Ba: 0.0909; P: 0.9091
mp-1066781,BrCl,"Br, Cl",2,0.0,Orthorhombic,36,Cmc2_1,1.8319999999999999,False,False,0.1000,Br: 0.5000; Cl: 0.5000
mp-632229,HBr,"Br, H",2,0.0,Orthorhombic,36,Cmc2_1,4.681,False,False,0.3800,H: 0.5000; Br: 0.5000
mp-2798,SiP,"P, Si",2,0.0,Orthorhombic,36,Cmc2_1,1.7395,False,False,0.1450,Si: 0.5000; P: 0.5000
mp-571636,InCl,"Cl, In",2,0.0016458790624991337,Orthorhombic,36,Cmc2_1,1.4018000000000002,False,False,0.6900,In: 0.5000; Cl: 0.5000
mp-29721,B3H5,"B, H",2,0.04459328468750101,Orthorhombic,36,Cmc2_1,3.8726000000000003,False,False,0.0775,B: 0.3750; H: 0.6250
mp-717,B2O3,"B, O",2,0.005631319333332385,Orthorhombic,36,Cmc2_1,8.3751,False,False,0.6859,B: 0.4000; O: 0.6000
mp-23297,BrF3,"Br, F",2,0.0,Orthorhombic,36,Cmc2_1,2.211,False,False,0.4417,Br: 0.2500; F: 0.7500
mp-556218,SiO2,"O, Si",2,0.012897781944445796,Orthorhombic,36,Cmc2_1,5.6156999999999995,False,False,0.7260,Si: 0.3333; O: 0.6667
mp-7670,K2Se3,"K, Se",2,0.0,Orthorhombic,36,Cmc2_1,0.644,False,False,0.8475,K: 0.4000; Se: 0.6000
mp-697111,H2O,"H, O",2,0.0,Orthorhombic,36,Cmc2_1,5.520200000000001,False,False,0.5845,H: 0.6667; O: 0.3333
mp-632326,HCl,"Cl, H",2,0.0,Orthorhombic,36,Cmc2_1,5.8162,False,False,0.4800,H: 0.5000; Cl: 0.5000
mp-1079600,Cs2S3,"Cs, S",2,0.0,Orthorhombic,36,Cmc2_1,1.3635,False,False,0.8769,Cs: 0.4000; S: 0.6000
mp-7449,Cs2Se3,"Cs, Se",2,0.0,Orthorhombic,36,Cmc2_1,0.7396,False,False,0.8622,Cs: 0.4000; Se: 0.6000
mp-7446,Rb2S3,"Rb, S",2,0.0,Orthorhombic,36,Cmc2_1,1.3433000000000002,False,False,0.8622,Rb: 0.4000; S: 0.6000
mp-7667,K2S3,"K, S",2,0.0,Orthorhombic,36,Cmc2_1,1.2855,False,False,0.8622,K: 0.4000; S: 0.6000
mp-632296,HF,"F, H",2,0.030579284999999956,Orthorhombic,36,Cmc2_1,6.7187,False,False,0.8900,H: 0.5000; F: 0.5000
mp-27987,BrF5,"Br, F",2,0.0,Orthorhombic,36,Cmc2_1,3.4507,False,False,0.3801,Br: 0.1667; F: 0.8333
mp-23173,HgI2,"Hg, I",2,0.0008679333333294625,Orthorhombic,36,Cmc2_1,2.3302,False,False,0.3111,Hg: 0.3333; I: 0.6667
mp-1102356,U3O8,"O, U",2,0.00344824409091693,Orthorhombic,38,Amm2,0.057800000000000296,False,False,0.9174,U: 0.2727; O: 0.7273
mp-561181,SiO2,"O, Si",2,0.01539572035714265,Orthorhombic,38,Amm2,5.6107,False,False,0.7260,Si: 0.3333; O: 0.6667
mp-27726,SO2,"O, S",2,0.0,Orthorhombic,41,Aea2,2.8367999999999998,False,False,0.4054,S: 0.3333; O: 0.6667
mp-1184928,IF7,"F, I",2,0.006252095624999399,Orthorhombic,41,Aea2,1.8027000000000002,False,False,0.4365,I: 0.1250; F: 0.8750
mp-570589,SeBr,"Br, Se",2,0.06491759552734422,Orthorhombic,41,Aea2,1.5238,False,False,0.2050,Se: 0.5000; Br: 0.5000
mp-1175,SrS3,"S, Sr",2,0.032827906093750414,Orthorhombic,41,Aea2,1.0930999999999997,False,False,0.7058,Sr: 0.2500; S: 0.7500
mp-27988,IF7,"F, I",2,0.0,Orthorhombic,41,Aea2,1.4397,False,False,0.4365,I: 0.1250; F: 0.8750
mp-28099,SBr,"Br, S",2,0.0,Orthorhombic,41,Aea2,2.2489,False,False,0.1900,S: 0.5000; Br: 0.5000
mp-1880,SbF3,"F, Sb",2,0.0,Orthorhombic,40,Ama2,4.4396,False,False,0.8357,Sb: 0.2500; F: 0.7500
mp-510421,CrO3,"Cr, O",2,0.04681459212500094,Orthorhombic,40,Ama2,2.2885,False,False,0.7708,Cr: 0.2500; O: 0.7500
mp-12177,Te2O5,"O, Te",2,0.0,Monoclinic,4,P2_1,1.6822,False,False,0.6054,Te: 0.2857; O: 0.7143
mp-567596,In6Se7,"In, Se",2,0.04236052794871625,Monoclinic,4,P2_1,0.019000000000000128,False,False,0.3839,In: 0.4615; Se: 0.5385
mp-690,P4S5,"P, S",2,0.005537089583331323,Monoclinic,4,P2_1,2.4890999999999996,False,False,0.1938,P: 0.4444; S: 0.5556
mp-30168,H34C19,"C, H",2,0.0554291457783016,Monoclinic,4,P2_1,5.4526,False,False,0.1678,H: 0.6415; C: 0.3585
mp-972808,SiO2,"O, Si",2,0.007662029722222741,Monoclinic,4,P2_1,5.5882,False,False,0.7260,Si: 0.3333; O: 0.6667
mp-1105118,As2O3,"As, O",2,0.019961169500000153,Monoclinic,4,P2_1,3.4494,False,False,0.6173,As: 0.4000; O: 0.6000
mp-1191613,AsS2,"As, S",2,0.027285937031251706,Monoclinic,4,P2_1,1.2919,False,False,0.1886,As: 0.3333; S: 0.6667
mp-685145,BN,"B, N",2,0.001287422500000801,Orthorhombic,42,Fmm2,3.2495000000000003,False,False,0.5000,B: 0.5000; N: 0.5000
mp-22009,PbSe,"Pb, Se",2,0.07355198500000171,Orthorhombic,42,Fmm2,1.2994999999999999,False,False,0.1100,Pb: 0.5000; Se: 0.5000
mp-1190257,GeSe2,"Ge, Se",2,0.006842112083333518,Orthorhombic,43,Fdd2,1.4891999999999999,False,False,0.2546,Ge: 0.3333; Se: 0.6667
mp-27253,Au2O3,"Au, O",2,0.0,Orthorhombic,43,Fdd2,0.8689999999999998,False,False,0.4409,Au: 0.4000; O: 0.6000
mp-8943,PtF4,"F, Pt",2,0.0,Orthorhombic,43,Fdd2,1.2953999999999999,False,False,0.6800,Pt: 0.2000; F: 0.8000
mp-15339,Sr3As4,"As, Sr",2,0.0,Orthorhombic,43,Fdd2,0.6166999999999998,False,False,0.6087,Sr: 0.4286; As: 0.5714
mp-546190,Ag2O3,"Ag, O",2,0.019745315499998917,Orthorhombic,43,Fdd2,0.347,False,False,0.7397,Ag: 0.4000; O: 0.6000
mp-14289,Ba3P4,"Ba, P",2,0.0,Orthorhombic,43,Fdd2,0.4838999999999998,False,False,0.6433,Ba: 0.4286; P: 0.5714
mp-542613,GeS2,"Ge, S",2,0.0034313409027779684,Orthorhombic,43,Fdd2,2.049,False,False,0.2687,Ge: 0.3333; S: 0.6667
mp-2452,P2O5,"O, P",2,0.010806055714287055,Orthorhombic,43,Fdd2,5.2021,False,False,0.5647,P: 0.2857; O: 0.7143
mp-569272,Cs2Se,"Cs, Se",2,0.07512745999999826,Orthorhombic,43,Fdd2,1.7441,False,False,0.8297,Cs: 0.6667; Se: 0.3333
mp-14288,Sr3P4,"P, Sr",2,0.0,Orthorhombic,43,Fdd2,0.8898000000000001,False,False,0.6136,Sr: 0.4286; P: 0.5714
mp-28096,SCl,"Cl, S",2,0.0,Orthorhombic,43,Fdd2,2.8804,False,False,0.2900,S: 0.5000; Cl: 0.5000
mp-13868,PdF4,"F, Pd",2,0.0,Orthorhombic,43,Fdd2,0.6178000000000001,False,False,0.7120,Pd: 0.2000; F: 0.8000
mp-29576,Cd7P10,"Cd, P",2,0.020627509632349827,Orthorhombic,43,Fdd2,1.1063999999999998,False,False,0.2461,Cd: 0.4118; P: 0.5882
mp-1954,P3N5,"N, P",2,0.0985067231250003,Orthorhombic,44,Imm2,2.6004999999999994,False,False,0.4115,P: 0.3750; N: 0.6250
mp-22464,NaO3,"Na, O",2,0.08382627531250009,Orthorhombic,44,Imm2,0.6064,False,False,1.0869,Na: 0.2500; O: 0.7500
mp-1205213,SiO2,"O, Si",2,0.07174161092592435,Orthorhombic,47,Pmmm,5.3649,False,False,0.7260,Si: 0.3333; O: 0.6667
mp-561320,PbS,"Pb, S",2,0.05847392749999969,Monoclinic,5,C2,1.6721,False,False,0.1250,Pb: 0.5000; S: 0.5000
mp-1204035,W15I47,"I, W",2,0.008332199260753015,Monoclinic,5,C2,0.07160000000000011,False,False,0.1285,W: 0.2419; I: 0.7581
mp-551905,OsO4,"O, Os",2,0.0,Monoclinic,5,C2,3.2472000000000003,False,False,0.4960,Os: 0.2000; O: 0.8000
mp-27398,TlBr2,"Br, Tl",2,0.0,Orthorhombic,52,Pnna,1.7922000000000002,False,False,0.6317,Tl: 0.3333; Br: 0.6667
mp-568108,InBr2,"Br, In",2,0.0,Orthorhombic,52,Pnna,2.4137,False,False,0.5563,In: 0.3333; Br: 0.6667
mp-28384,GaBr2,"Br, Ga",2,0.0,Orthorhombic,52,Pnna,3.1033,False,False,0.5421,Ga: 0.3333; Br: 0.6667
mp-560098,SbO2,"O, Sb",2,0.005355817916640859,Orthorhombic,52,Pnna,1.9573,False,False,0.6553,Sb: 0.3333; O: 0.6667
mp-568848,GaCl2,"Cl, Ga",2,0.0,Orthorhombic,52,Pnna,3.8564000000000003,False,False,0.6364,Ga: 0.3333; Cl: 0.6667
mp-29312,InI2,"I, In",2,0.0,Orthorhombic,52,Pnna,1.7863000000000002,False,False,0.4148,In: 0.3333; I: 0.6667
mp-510252,Fe3O4,"Fe, O",2,0.07504739107143088,Orthorhombic,51,Pmma,0.24350000000000005,False,False,0.7967,Fe: 0.4286; O: 0.5714
mp-17524,GeAs2,"As, Ge",2,0.0,Orthorhombic,55,Pbam,0.7195999999999998,False,False,0.0801,Ge: 0.3333; As: 0.6667
mp-28823,Ba4P3,"Ba, P",2,0.0,Orthorhombic,55,Pbam,0.7464,False,False,0.6433,Ba: 0.5714; P: 0.4286
mp-978553,SiAs2,"As, Si",2,0.0,Orthorhombic,55,Pbam,0.8890999999999996,False,False,0.1320,Si: 0.3333; As: 0.6667
mp-29424,Sr4As3,"As, Sr",2,0.0,Orthorhombic,55,Pbam,0.5853000000000002,False,False,0.6087,Sr: 0.5714; As: 0.4286
mp-8360,RbTe,"Rb, Te",2,0.0,Orthorhombic,55,Pbam,0.8245999999999998,False,False,0.6400,Rb: 0.5000; Te: 0.5000
mp-636813,Pb3O4,"O, Pb",2,0.032631488928572594,Orthorhombic,55,Pbam,0.9925999999999995,False,False,0.5493,Pb: 0.4286; O: 0.5714
mp-638005,SeO2,"O, Se",2,0.0015618591666655135,Orthorhombic,55,Pbam,3.2704,False,False,0.4196,Se: 0.3333; O: 0.6667
mp-1194887,Ca4As3,"As, Ca",2,0.0,Orthorhombic,55,Pbam,0.6617000000000002,False,False,0.5839,Ca: 0.5714; As: 0.4286
mp-8361,CsTe,"Cs, Te",2,0.0,Orthorhombic,55,Pbam,1.0019,False,False,0.6550,Cs: 0.5000; Te: 0.5000
mp-9996,SiP2,"P, Si",2,0.0,Orthorhombic,55,Pbam,1.4262000000000001,False,False,0.1367,Si: 0.3333; P: 0.6667
mp-21452,Pb3O4,"O, Pb",2,0.0001734625000011647,Orthorhombic,55,Pbam,1.1604,False,False,0.5493,Pb: 0.4286; O: 0.5714
mp-556549,Bi2O3,"Bi, O",2,0.016509779500001542,Orthorhombic,56,Pccn,2.2769999999999997,False,False,0.6957,Bi: 0.4000; O: 0.6000
mp-29654,B9H11,"B, H",2,0.0,Orthorhombic,56,Pccn,2.9118,False,False,0.0796,B: 0.4500; H: 0.5500
mp-2136,Sb2O3,"O, Sb",2,0.0,Orthorhombic,56,Pccn,2.2239000000000004,False,False,0.6810,Sb: 0.4000; O: 0.6000
mp-267,Te2Ru,"Ru, Te",2,0.0,Orthorhombic,58,Pnnm,0.28470000000000084,False,False,0.0471,Te: 0.6667; Ru: 0.3333
mp-1413,P2Ru,"P, Ru",2,0.0,Orthorhombic,58,Pnnm,0.4791999999999996,False,False,0.0047,P: 0.6667; Ru: 0.3333
mp-1285,PtO2,"O, Pt",2,0.0,Orthorhombic,58,Pnnm,0.6463999999999999,False,False,0.5468,Pt: 0.3333; O: 0.6667
mp-569008,PdCl2,"Cl, Pd",2,0.03231388833333426,Orthorhombic,58,Pnnm,0.9227000000000001,False,False,0.4525,Pd: 0.3333; Cl: 0.6667
mp-766,As2Ru,"As, Ru",2,0.0,Orthorhombic,58,Pnnm,0.44920000000000027,False,False,0.0094,As: 0.6667; Ru: 0.3333
mp-20928,Sb2Ru,"Ru, Sb",2,0.0,Orthorhombic,58,Pnnm,0.0034999999999989484,False,False,0.0707,Sb: 0.6667; Ru: 0.3333
mp-570130,AlH3,"Al, H",2,0.014584145416667305,Orthorhombic,58,Pnnm,3.1862000000000004,False,False,0.2555,Al: 0.2500; H: 0.7500
mp-19932,In4Se3,"In, Se",2,0.01905474571428556,Orthorhombic,58,Pnnm,0.1504000000000003,False,False,0.3811,In: 0.5714; Se: 0.4286
mp-582968,Bi6Cl7,"Bi, Cl",2,0.0,Orthorhombic,58,Pnnm,1.6159999999999997,False,False,0.5683,Bi: 0.4615; Cl: 0.5385
mp-617281,In4Te3,"In, Te",2,0.0,Orthorhombic,58,Pnnm,0.12239999999999984,False,False,0.1584,In: 0.5714; Te: 0.4286
mp-2455,As2Os,"As, Os",2,0.0,Orthorhombic,58,Pnnm,0.6646999999999998,False,False,0.0094,As: 0.6667; Os: 0.3333
mp-1072956,MgF2,"F, Mg",2,0.0024727899999996694,Orthorhombic,58,Pnnm,6.8477,False,False,1.2587,Mg: 0.3333; F: 0.6667
mp-2695,Sb2Os,"Os, Sb",2,0.0,Orthorhombic,58,Pnnm,0.34470000000000134,False,False,0.0707,Sb: 0.6667; Os: 0.3333
mp-19880,FeTe2,"Fe, Te",2,0.0,Orthorhombic,58,Pnnm,0.07739999999999903,False,False,0.1273,Fe: 0.3333; Te: 0.6667
mp-550172,SnO2,"O, Sn",2,0.0022508566666665786,Orthorhombic,58,Pnnm,0.8060999999999998,False,False,0.6977,Sn: 0.3333; O: 0.6667
mp-23214,CaCl2,"Ca, Cl",2,0.001145210833334076,Orthorhombic,58,Pnnm,5.3978,False,False,1.0182,Ca: 0.3333; Cl: 0.6667
mp-567484,PtCl2,"Cl, Pt",2,0.04601806499999839,Orthorhombic,58,Pnnm,1.1359,False,False,0.4148,Pt: 0.3333; Cl: 0.6667
mp-19795,InS,"In, S",2,0.0,Orthorhombic,58,Pnnm,1.3508000000000004,False,False,0.4000,In: 0.5000; S: 0.5000
mp-27709,Bi6Br7,"Bi, Br",2,0.044985312500000596,Orthorhombic,58,Pnnm,1.4121000000000001,False,False,0.4686,Bi: 0.4615; Br: 0.5385
mp-20027,FeP2,"Fe, P",2,0.0,Orthorhombic,58,Pnnm,0.43270000000000053,False,False,0.1697,Fe: 0.3333; P: 0.6667
mp-558025,SiO2,"O, Si",2,0.016457801296297703,Orthorhombic,58,Pnnm,5.671,False,False,0.7260,Si: 0.3333; O: 0.6667
mp-22888,CaBr2,"Br, Ca",2,0.0,Orthorhombic,58,Pnnm,4.5304,False,False,0.9240,Ca: 0.3333; Br: 0.6667
mp-2008,FeAs2,"As, Fe",2,0.0,Orthorhombic,58,Pnnm,0.2829999999999995,False,False,0.1650,Fe: 0.3333; As: 0.6667
mp-1522,FeS2,"Fe, S",2,0.0,Orthorhombic,58,Pnnm,0.8770000000000007,False,False,0.3536,Fe: 0.3333; S: 0.6667
mp-22857,CrCl2,"Cl, Cr",2,0.07023949000000052,Orthorhombic,58,Pnnm,0.7128999999999999,False,False,0.7071,Cr: 0.3333; Cl: 0.6667
mp-760,FeSe2,"Fe, Se",2,0.0,Orthorhombic,58,Pnnm,0.3741000000000003,False,False,0.3394,Fe: 0.3333; Se: 0.6667
mp-2319,P2Os,"Os, P",2,0.0,Orthorhombic,58,Pnnm,0.8902999999999999,False,False,0.0047,P: 0.6667; Os: 0.3333
mp-569017,PdI2,"I, Pd",2,0.019478943333334886,Orthorhombic,58,Pnnm,0.9488000000000001,False,False,0.2168,Pd: 0.3333; I: 0.6667
mp-1072104,GeO2,"Ge, O",2,0.005788985555556181,Orthorhombic,58,Pnnm,1.3714999999999993,False,False,0.6741,Ge: 0.3333; O: 0.6667
mp-639662,CrF5,"Cr, F",2,0.0,Orthorhombic,57,Pbcm,1.2205999999999997,False,False,0.8646,Cr: 0.1667; F: 0.8333
mp-505464,Cs2Te13,"Cs, Te",2,0.0,Orthorhombic,57,Pbcm,0.4802000000000004,False,False,0.4453,Cs: 0.1333; Te: 0.8667
mp-1106367,HgS4,"Hg, S",2,0.0,Orthorhombic,57,Pbcm,1.0474999999999999,False,False,0.2320,Hg: 0.2000; S: 0.8000
mp-696805,H2S,"H, S",2,0.0,Orthorhombic,57,Pbcm,4.3246,False,False,0.1791,H: 0.6667; S: 0.3333
mp-22874,PBr5,"Br, P",2,0.0,Orthorhombic,57,Pbcm,1.6183,False,False,0.2870,P: 0.1667; Br: 0.8333
mp-720,TlF,"F, Tl",2,0.0,Orthorhombic,57,Pbcm,3.205,False,False,1.1800,Tl: 0.5000; F: 0.5000
mp-1201920,CsSe4,"Cs, Se",2,0.0,Orthorhombic,57,Pbcm,0.9736,False,False,0.7040,Cs: 0.2000; Se: 0.8000
mp-1201790,CsP7,"Cs, P",2,0.0,Orthorhombic,57,Pbcm,1.2774,False,False,0.4630,Cs: 0.1250; P: 0.8750
mp-20878,PbO,"O, Pb",2,0.009288451250000662,Orthorhombic,57,Pbcm,2.1565,False,False,0.5550,Pb: 0.5000; O: 0.5000
mp-23264,TiI3,"I, Ti",2,0.0,Orthorhombic,59,Pmmn,0.13039999999999985,False,False,0.4850,Ti: 0.2500; I: 0.7500
mp-25279,V2O5,"O, V",2,0.0,Orthorhombic,59,Pmmn,2.2826000000000004,False,False,0.8177,V: 0.2857; O: 0.7143
mp-754670,V2O5,"O, V",2,0.009122270000000654,Orthorhombic,59,Pmmn,2.4105,False,False,0.8177,V: 0.2857; O: 0.7143
mp-561351,SiO2,"O, Si",2,0.017940285000001666,Orthorhombic,59,Pmmn,5.5568,False,False,0.7260,Si: 0.3333; O: 0.6667
mp-30106,AsCl5,"As, Cl",2,0.017589918333332122,Orthorhombic,59,Pmmn,1.4376,False,False,0.3652,As: 0.1667; Cl: 0.8333
mp-1105681,In2O3,"In, O",2,0.037840163749999434,Orthorhombic,60,Pbcn,0.7626999999999997,False,False,0.8132,In: 0.4000; O: 0.6000
mp-28353,NaTe,"Na, Te",2,0.004674205624999317,Orthorhombic,60,Pbcn,0.7888000000000002,False,False,0.5850,Na: 0.5000; Te: 0.5000
mp-542233,Rb3As11,"As, Rb",2,0.0,Orthorhombic,60,Pbcn,1.4693,False,False,0.5580,Rb: 0.2143; As: 0.7857
mp-22192,Si3Ru2,"Ru, Si",2,0.0,Orthorhombic,60,Pbcn,0.5510999999999999,False,False,0.1470,Si: 0.6000; Ru: 0.4000
mp-1568,K3P11,"K, P",2,0.0,Orthorhombic,60,Pbcn,1.93,False,False,0.5621,K: 0.2143; P: 0.7857
mp-1172828,WO3,"O, W",2,0.007600772187499771,Orthorhombic,60,Pbcn,1.4645,False,False,0.4677,W: 0.2500; O: 0.7500
mp-16610,Ge3Os2,"Ge, Os",2,0.0,Orthorhombic,60,Pbcn,0.7418000000000005,False,False,0.0931,Ge: 0.6000; Os: 0.4000
mp-1188655,Ir2S3,"Ir, S",2,0.0,Orthorhombic,60,Pbcn,0.7821000000000007,False,False,0.1862,Ir: 0.4000; S: 0.6000
mp-473,Na3P11,"Na, P",2,0.0,Orthorhombic,60,Pbcn,1.8326000000000002,False,False,0.5170,Na: 0.2143; P: 0.7857
mp-1938,Al2O3,"Al, O",2,0.09335591350000083,Orthorhombic,60,Pbcn,5.313199999999999,False,False,0.8965,Al: 0.4000; O: 0.6000
mp-13869,Cr5O12,"Cr, O",2,0.025175022647058398,Orthorhombic,60,Pbcn,1.3909,False,False,0.8110,Cr: 0.2941; O: 0.7059
mp-556034,CO2,"C, O",2,0.010511642499999141,Orthorhombic,60,Pbcn,6.676,False,False,0.4196,C: 0.3333; O: 0.6667
mp-21945,Ge3Ru2,"Ge, Ru",2,0.0,Orthorhombic,60,Pbcn,0.3814000000000002,False,False,0.0931,Ge: 0.6000; Ru: 0.4000
mp-16608,Si3Os2,"Os, Si",2,0.0,Orthorhombic,60,Pbcn,0.8552999999999997,False,False,0.1470,Si: 0.6000; Os: 0.4000
mp-555487,SnO2,"O, Sn",2,0.011379991388887234,Orthorhombic,60,Pbcn,0.8470999999999993,False,False,0.6977,Sn: 0.3333; O: 0.6667
mp-17173,Rh2S3,"Rh, S",2,0.0011571454999987907,Orthorhombic,60,Pbcn,0.19179999999999975,False,False,0.1470,Rh: 0.4000; S: 0.6000
mp-1666,Th2S5,"S, Th",2,0.0,Orthorhombic,60,Pbcn,1.7512999999999996,False,False,0.5782,Th: 0.2857; S: 0.7143
mp-23711,MgH2,"H, Mg",2,0.0018755891666670799,Orthorhombic,60,Pbcn,3.6284,False,False,0.4196,Mg: 0.3333; H: 0.6667
mp-1195045,WI4,"I, W",2,0.0,Orthorhombic,60,Pbcn,1.0716,False,False,0.1200,W: 0.2000; I: 0.8000
mp-1439,TiO2,"O, Ti",2,0.004523600833332253,Orthorhombic,60,Pbcn,2.5281,False,False,0.8957,Ti: 0.3333; O: 0.6667
mp-1197062,Rb3P11,"P, Rb",2,0.0,Orthorhombic,60,Pbcn,1.9328,False,False,0.5621,Rb: 0.2143; P: 0.7857
mp-571642,CaCl2,"Ca, Cl",2,0.0,Orthorhombic,60,Pbcn,5.5987,False,False,1.0182,Ca: 0.3333; Cl: 0.6667
mp-541000,K3As11,"As, K",2,0.0,Orthorhombic,60,Pbcn,1.4670999999999998,False,False,0.5580,K: 0.2143; As: 0.7857
mp-10913,GeO2,"Ge, O",2,0.0361803725000005,Orthorhombic,60,Pbcn,1.5228000000000002,False,False,0.6741,Ge: 0.3333; O: 0.6667
mp-1716,Rh2O3,"O, Rh",2,0.0,Orthorhombic,60,Pbcn,0.5597000000000003,False,False,0.5683,Rh: 0.4000; O: 0.6000
mp-7709,ZnF2,"F, Zn",2,0.0023652708333337102,Orthorhombic,60,Pbcn,3.5604,False,False,1.0984,Zn: 0.3333; F: 0.6667
mp-776402,B10H13,"B, H",2,0.006570894966031915,Orthorhombic,61,Pbca,3.206,False,False,0.0793,B: 0.4348; H: 0.5652
mp-680329,K3As7,"As, K",2,0.0,Orthorhombic,61,Pbca,1.3032000000000001,False,False,0.6232,K: 0.3000; As: 0.7000
mp-7373,CdAs,"As, Cd",2,0.015634253046873603,Orthorhombic,61,Pbca,0.09189999999999987,False,False,0.2450,Cd: 0.5000; As: 0.5000
mp-1190186,ZrO2,"O, Zr",2,0.013256612916665134,Orthorhombic,61,Pbca,3.5793999999999997,False,False,0.9947,Zr: 0.3333; O: 0.6667
mp-583070,Re2Te5,"Re, Te",2,0.0,Orthorhombic,61,Pbca,0.6052999999999997,False,False,0.0904,Re: 0.2857; Te: 0.7143
mp-1172875,Mn2O3,"Mn, O",2,0.0,Orthorhombic,61,Pbca,0.07210000000000027,False,False,0.9259,Mn: 0.4000; O: 0.6000
mp-568441,MgH2,"H, Mg",2,0.04591761333333322,Orthorhombic,61,Pbca,2.0719999999999996,False,False,0.4196,Mg: 0.3333; H: 0.6667
mp-2125,TeO2,"O, Te",2,0.00035735458333086,Orthorhombic,61,Pbca,2.2279000000000004,False,False,0.6317,Te: 0.3333; O: 0.6667
mp-27780,TcCl4,"Cl, Tc",2,0.0,Orthorhombic,61,Pbca,0.7828999999999999,False,False,0.5040,Tc: 0.2000; Cl: 0.8000