material_id,formula,elements,num_elements,energy_above_hull,crystal_system,spacegroup_number,spacegroup_symbol,band_gap,theoretical,is_metal,electronegativity_difference,atomic_concentrations
mp-1840,TiO2,"O, Ti",2,0.0030413275000000795,Orthorhombic,61,Pbca,2.2862,False,False,0.8957,Ti: 0.3333; O: 0.6667
mp-570799,EuI2,"Eu, I",2,0.011422048333329826,Orthorhombic,61,Pbca,1.4536999999999995,False,False,0.6953,Eu: 0.3333; I: 0.6667
mp-1194571,In2O3,"In, O",2,0.031132223500002,Orthorhombic,61,Pbca,0.8990999999999998,False,False,0.8132,In: 0.4000; O: 0.6000
mp-27485,Tc2O7,"O, Tc",2,0.0,Orthorhombic,61,Pbca,2.6664,False,False,0.6402,Tc: 0.2222; O: 0.7778
mp-7372,ZnAs,"As, Zn",2,0.019185738632812033,Orthorhombic,61,Pbca,0.2952999999999997,False,False,0.2650,Zn: 0.5000; As: 0.5000
mp-1321,CdSb,"Cd, Sb",2,0.0,Orthorhombic,61,Pbca,0.020099999999999785,False,False,0.1800,Cd: 0.5000; Sb: 0.5000
mp-669496,PtI4,"I, Pt",2,0.0,Orthorhombic,61,Pbca,0.6934,False,False,0.1520,Pt: 0.2000; I: 0.8000
mp-27876,B2H3,"B, H",2,0.03457064714772695,Orthorhombic,61,Pbca,3.074,False,False,0.0784,B: 0.4000; H: 0.6000
mp-680395,Li3As7,"As, Li",2,0.000924287437500837,Orthorhombic,61,Pbca,1.3268999999999997,False,False,0.5499,Li: 0.3000; As: 0.7000
mp-1204799,Tc2Te5,"Tc, Te",2,0.0,Orthorhombic,61,Pbca,0.5259999999999998,False,False,0.0904,Tc: 0.2857; Te: 0.7143
mp-2418,PdSe2,"Pd, Se",2,0.0,Orthorhombic,61,Pbca,0.4001000000000001,False,False,0.1650,Pd: 0.3333; Se: 0.6667
mp-13682,PdS2,"Pd, S",2,0.0,Orthorhombic,61,Pbca,0.4209999999999998,False,False,0.1791,Pd: 0.3333; S: 0.6667
mp-613620,Rh2O3,"O, Rh",2,0.0012415312499989284,Orthorhombic,61,Pbca,0.23749999999999982,False,False,0.5683,Rh: 0.4000; O: 0.6000
mp-1858,HfO2,"Hf, O",2,0.016383926250000513,Orthorhombic,61,Pbca,4.2272,False,False,1.0088,Hf: 0.3333; O: 0.6667
mp-680413,Rb3As7,"As, Rb",2,0.0,Orthorhombic,61,Pbca,1.4234,False,False,0.6232,Rb: 0.3000; As: 0.7000
mp-753,ZnSb,"Sb, Zn",2,0.0,Orthorhombic,61,Pbca,0.028200000000000003,False,False,0.2000,Zn: 0.5000; Sb: 0.5000
mp-23181,SrI2,"I, Sr",2,0.00957660791667081,Orthorhombic,61,Pbca,3.8415,False,False,0.8061,Sr: 0.3333; I: 0.6667
mp-570480,TcBr4,"Br, Tc",2,0.0,Orthorhombic,61,Pbca,0.6025,False,False,0.4240,Tc: 0.2000; Br: 0.8000
mp-27267,ReP4,"P, Re",2,0.0,Orthorhombic,61,Pbca,0.7559000000000005,False,False,0.1160,Re: 0.2000; P: 0.8000
mp-28026,TcP4,"P, Tc",2,0.0,Orthorhombic,61,Pbca,0.8481000000000005,False,False,0.1160,Tc: 0.2000; P: 0.8000
mp-573631,Cs3As7,"As, Cs",2,0.0,Orthorhombic,61,Pbca,1.5702999999999998,False,False,0.6370,Cs: 0.3000; As: 0.7000
mp-1105231,Ba5P4,"Ba, P",2,0.0,Orthorhombic,64,Cmce,0.9422000000000001,False,False,0.6460,Ba: 0.5556; P: 0.4444
mp-1714,FeSi2,"Fe, Si",2,0.0,Orthorhombic,64,Cmce,0.6966000000000001,False,False,0.0330,Fe: 0.3333; Si: 0.6667
mp-17123,Si2Os,"Os, Si",2,0.0,Orthorhombic,64,Cmce,0.6496999999999993,False,False,0.1414,Si: 0.6667; Os: 0.3333
mp-29498,WBr2,"Br, W",2,0.0,Orthorhombic,64,Cmce,2.4687,False,False,0.2828,W: 0.3333; Br: 0.6667
mp-23238,Ta3I7,"I, Ta",2,0.0,Orthorhombic,64,Cmce,0.8864000000000001,False,False,0.5316,Ta: 0.3000; I: 0.7000
mp-1198690,MoI2,"I, Mo",2,0.0,Orthorhombic,64,Cmce,1.6796000000000002,False,False,0.2357,Mo: 0.3333; I: 0.6667
mp-1077906,CO2,"C, O",2,0.007274903333332361,Orthorhombic,64,Cmce,6.5856,False,False,0.4196,C: 0.3333; O: 0.6667
mp-27880,Nb3Cl7,"Cl, Nb",2,0.0,Orthorhombic,64,Cmce,0.9765000000000001,False,False,0.7149,Nb: 0.3000; Cl: 0.7000
mp-10089,Ba5Sb4,"Ba, Sb",2,0.0,Orthorhombic,64,Cmce,0.2648999999999999,False,False,0.5764,Ba: 0.5556; Sb: 0.4444
mp-2672,K2O2,"K, O",2,0.0,Orthorhombic,64,Cmce,2.3575,False,False,1.3100,K: 0.5000; O: 0.5000
mp-29555,MoBr2,"Br, Mo",2,0.0,Orthorhombic,64,Cmce,2.138,False,False,0.3771,Mo: 0.3333; Br: 0.6667
mp-29412,Ta3Br7,"Br, Ta",2,0.007332055750005395,Orthorhombic,64,Cmce,1.2286000000000001,False,False,0.6691,Ta: 0.3000; Br: 0.7000
mp-620029,MoCl2,"Cl, Mo",2,0.0,Orthorhombic,64,Cmce,2.4547999999999996,False,False,0.4714,Mo: 0.3333; Cl: 0.6667
mp-560998,SiO2,"O, Si",2,0.01830412037037199,Orthorhombic,65,Cmmm,5.5774,False,False,0.7260,Si: 0.3333; O: 0.6667
mp-653763,SiO2,"O, Si",2,0.017316767976190306,Orthorhombic,67,Cmme,5.3421,False,False,0.7260,Si: 0.3333; O: 0.6667
mp-2079,Rb2P3,"P, Rb",2,0.0,Orthorhombic,69,Fmmm,0.7643999999999997,False,False,0.6712,Rb: 0.4000; P: 0.6000
mp-15557,Cs2As3,"As, Cs",2,0.0,Orthorhombic,69,Fmmm,0.4474999999999998,False,False,0.6810,Cs: 0.4000; As: 0.6000
mp-14652,Cs2P3,"Cs, P",2,0.0,Orthorhombic,69,Fmmm,0.8470999999999997,False,False,0.6859,Cs: 0.4000; P: 0.6000
mp-15556,Rb2As3,"As, Rb",2,0.0,Orthorhombic,69,Fmmm,0.39680000000000004,False,False,0.6663,Rb: 0.4000; As: 0.6000
mp-556591,SiO2,"O, Si",2,0.020681107777779317,Orthorhombic,69,Fmmm,5.873200000000001,False,False,0.7260,Si: 0.3333; O: 0.6667
mp-8262,K2P3,"K, P",2,3.2265499998018754e-05,Orthorhombic,69,Fmmm,0.7095000000000002,False,False,0.6712,K: 0.4000; P: 0.6000
mp-1201958,Mo8O23,"Mo, O",2,0.007169739838710498,Monoclinic,7,Pc,0.5988,False,False,0.5601,Mo: 0.2581; O: 0.7419
mp-31243,BaAs2,"As, Ba",2,0.0,Monoclinic,7,Pc,0.41449999999999987,False,False,0.6081,Ba: 0.3333; As: 0.6667
mp-1197287,GeS2,"Ge, S",2,0.007571829513889128,Monoclinic,7,Pc,2.2279,False,False,0.2687,Ge: 0.3333; S: 0.6667
mp-1196958,V6O13,"O, V",2,0.04493868526315836,Monoclinic,7,Pc,0.03320000000000012,False,False,0.8413,V: 0.3158; O: 0.6842
mp-1105684,Tb2Te3,"Tb, Te",2,0.0,Orthorhombic,70,Fddd,0.5516999999999999,False,False,0.4360,Tb: 0.4000; Te: 0.6000
mp-12383,Sc2Te3,"Sc, Te",2,0.0012142619999995219,Orthorhombic,70,Fddd,0.012500000000000178,False,False,0.3625,Sc: 0.4000; Te: 0.6000
mp-9824,Ho2Se3,"Ho, Se",2,0.0,Orthorhombic,70,Fddd,1.315,False,False,0.6467,Ho: 0.4000; Se: 0.6000
mp-1189125,Lu2Se3,"Lu, Se",2,0.0,Orthorhombic,70,Fddd,1.3355,False,False,0.6271,Lu: 0.4000; Se: 0.6000
mp-568208,IrCl3,"Cl, Ir",2,0.0,Orthorhombic,70,Fddd,1.9582,False,False,0.4157,Ir: 0.2500; Cl: 0.7500
mp-2131,SrN6,"N, Sr",2,0.009174299285714227,Orthorhombic,70,Fddd,3.6681,False,False,0.7313,Sr: 0.1429; N: 0.8571
mp-1189209,Ho2Te3,"Ho, Te",2,0.0,Orthorhombic,70,Fddd,0.5307999999999997,False,False,0.4262,Ho: 0.4000; Te: 0.6000
mp-1189318,Tm2Se3,"Se, Tm",2,0.0,Orthorhombic,70,Fddd,1.3417000000000001,False,False,0.6369,Tm: 0.4000; Se: 0.6000
mp-1205354,Sc2Se3,"Sc, Se",2,0.0,Orthorhombic,70,Fddd,0.6257999999999999,False,False,0.5830,Sc: 0.4000; Se: 0.6000
mp-1198490,UO3,"O, U",2,0.08282075218749974,Orthorhombic,70,Fddd,1.8782999999999994,False,False,0.8920,U: 0.2500; O: 0.7500
mp-1189748,Lu2Te3,"Lu, Te",2,0.0,Orthorhombic,70,Fddd,0.5877999999999997,False,False,0.4066,Lu: 0.4000; Te: 0.6000
mp-1188427,Dy2Te3,"Dy, Te",2,0.0,Orthorhombic,70,Fddd,0.5488,False,False,0.4311,Dy: 0.4000; Te: 0.6000
mp-1189791,Y2Te3,"Te, Y",2,0.0,Orthorhombic,70,Fddd,0.5592999999999995,False,False,0.4311,Y: 0.4000; Te: 0.6000
mp-401,Sc2S3,"S, Sc",2,0.0,Orthorhombic,70,Fddd,1.0349999999999997,False,False,0.5977,Sc: 0.4000; S: 0.6000
mp-569857,K2P3,"K, P",2,0.0,Orthorhombic,70,Fddd,1.0327000000000002,False,False,0.6712,K: 0.4000; P: 0.6000
mp-676,CaN6,"Ca, N",2,0.04061298999999963,Orthorhombic,70,Fddd,3.4205,False,False,0.7139,Ca: 0.1429; N: 0.8571
mp-1105821,Y2Se3,"Se, Y",2,0.0,Orthorhombic,70,Fddd,1.3157999999999999,False,False,0.6516,Y: 0.4000; Se: 0.6000
mp-1188133,Tm2Te3,"Te, Tm",2,0.0,Orthorhombic,70,Fddd,0.5788000000000002,False,False,0.4164,Tm: 0.4000; Te: 0.6000
mp-14643,Er2Te3,"Er, Te",2,0.0,Orthorhombic,70,Fddd,0.05210000000000026,False,False,0.4213,Er: 0.4000; Te: 0.6000
mp-209,Er2Se3,"Er, Se",2,0.0,Orthorhombic,70,Fddd,0.7923,False,False,0.6418,Er: 0.4000; Se: 0.6000
mp-1179443,SiSe2,"Se, Si",2,0.005694130416665999,Orthorhombic,72,Ibam,1.8981000000000001,False,False,0.3064,Si: 0.3333; Se: 0.6667
mp-30139,BeBr2,"Be, Br",2,0.0,Orthorhombic,72,Ibam,5.180400000000001,False,False,0.6553,Be: 0.3333; Br: 0.6667
mp-768203,BeH2,"Be, H",2,0.0,Orthorhombic,72,Ibam,5.3844,False,False,0.2970,Be: 0.3333; H: 0.6667
mp-568264,SiSe2,"Se, Si",2,0.004154867083331126,Orthorhombic,72,Ibam,2.167,False,False,0.3064,Si: 0.3333; Se: 0.6667
mp-23267,BeCl2,"Be, Cl",2,0.008707515833333623,Orthorhombic,72,Ibam,6.3359000000000005,False,False,0.7495,Be: 0.3333; Cl: 0.6667
mp-1602,SiS2,"S, Si",2,0.0,Orthorhombic,72,Ibam,3.1072,False,False,0.3206,Si: 0.3333; S: 0.6667
mp-570886,BeI2,"Be, I",2,0.0067352966666667236,Orthorhombic,72,Ibam,3.6032,False,False,0.5138,Be: 0.3333; I: 0.6667
mp-22858,TlI,"I, Tl",2,0.0007962224999999989,Orthorhombic,63,Cmcm,2.1452,False,False,0.5200,Tl: 0.5000; I: 0.5000
mp-571079,TlCl,"Cl, Tl",2,0.0,Orthorhombic,63,Cmcm,2.5181,False,False,0.7700,Tl: 0.5000; Cl: 0.5000
mp-560402,U3O8,"O, U",2,0.0,Orthorhombic,63,Cmcm,0.045099999999999696,False,False,0.9174,U: 0.2727; O: 0.7273
mp-1379,SnS,"S, Sn",2,0.07615808625000042,Orthorhombic,63,Cmcm,1.2738,False,False,0.3100,Sn: 0.5000; S: 0.5000
mp-1063670,PbSe,"Pb, Se",2,0.03863089499999717,Orthorhombic,63,Cmcm,0.9044000000000008,False,False,0.1100,Pb: 0.5000; Se: 0.5000
mp-999305,PrRh,"Pr, Rh",2,0.0,Orthorhombic,63,Cmcm,0.17550000000000043,False,False,0.5750,Pr: 0.5000; Rh: 0.5000
mp-27976,SmBr3,"Br, Sm",2,0.0,Orthorhombic,63,Cmcm,3.016,False,False,0.7751,Sm: 0.2500; Br: 0.7500
mp-559871,AlF3,"Al, F",2,0.0106335370833337,Orthorhombic,63,Cmcm,7.5230999999999995,False,False,1.0262,Al: 0.2500; F: 0.7500
mp-27975,NdBr3,"Br, Nd",2,0.0,Orthorhombic,63,Cmcm,2.9221,False,False,0.7881,Nd: 0.2500; Br: 0.7500
mp-570858,AgCl,"Ag, Cl",2,0.028544702500001407,Orthorhombic,63,Cmcm,0.44379999999999975,False,False,0.6150,Ag: 0.5000; Cl: 0.5000
mp-27979,LaI3,"I, La",2,0.0,Orthorhombic,63,Cmcm,2.0709,False,False,0.6755,La: 0.2500; I: 0.7500
mp-559676,SnS,"S, Sn",2,0.028504053749998093,Orthorhombic,63,Cmcm,0.31130000000000013,False,False,0.3100,Sn: 0.5000; S: 0.5000
mp-22870,InBr,"Br, In",2,0.0,Orthorhombic,63,Cmcm,1.2570999999999999,False,False,0.5900,In: 0.5000; Br: 0.5000
mp-28448,DyCl3,"Cl, Dy",2,0.0,Orthorhombic,63,Cmcm,3.8954,False,False,0.8400,Dy: 0.2500; Cl: 0.7500
mp-1205322,CaH2,"Ca, H",2,0.056200145000000035,Orthorhombic,63,Cmcm,0.6541000000000001,False,False,0.5657,Ca: 0.3333; H: 0.6667
mp-560973,SiO2,"O, Si",2,0.03480365000000063,Orthorhombic,63,Cmcm,5.4387,False,False,0.7260,Si: 0.3333; O: 0.6667
mp-1018115,PbS,"Pb, S",2,0.038505175000000946,Orthorhombic,63,Cmcm,1.3091999999999997,False,False,0.1250,Pb: 0.5000; S: 0.5000
mp-23202,InI,"I, In",2,0.0,Orthorhombic,63,Cmcm,1.3412000000000002,False,False,0.4400,In: 0.5000; I: 0.5000
mp-1179094,SrH2,"H, Sr",2,0.04413269916666618,Orthorhombic,63,Cmcm,1.2783,False,False,0.5893,Sr: 0.3333; H: 0.6667
mp-796276,MoO3,"Mo, O",2,0.05301288437499885,Orthorhombic,63,Cmcm,0.4534,False,False,0.5543,Mo: 0.2500; O: 0.7500
mp-1183246,AlH3,"Al, H",2,0.004248899583333632,Orthorhombic,63,Cmcm,3.0448,False,False,0.2555,Al: 0.2500; H: 0.7500
mp-560920,SiO2,"O, Si",2,0.01160585270833181,Orthorhombic,63,Cmcm,5.613300000000001,False,False,0.7260,Si: 0.3333; O: 0.6667
mp-27488,Ta3N5,"N, Ta",2,0.0,Orthorhombic,63,Cmcm,1.2140999999999997,False,False,0.7455,Ta: 0.3750; N: 0.6250
mp-560941,SiO2,"O, Si",2,0.011246451041666106,Orthorhombic,63,Cmcm,5.7844999999999995,False,False,0.7260,Si: 0.3333; O: 0.6667
mp-560826,SiO2,"O, Si",2,0.01783695416666653,Orthorhombic,63,Cmcm,5.4292,False,False,0.7260,Si: 0.3333; O: 0.6667
mp-1007922,CuI,"Cu, I",2,0.05809090250000182,Orthorhombic,63,Cmcm,1.3599,False,False,0.3800,Cu: 0.5000; I: 0.5000
mp-23293,TbCl3,"Cl, Tb",2,0.0,Orthorhombic,63,Cmcm,3.7966,False,False,0.8444,Tb: 0.2500; Cl: 0.7500
mp-1104010,Cs2Te5,"Cs, Te",2,0.0,Orthorhombic,63,Cmcm,0.3998000000000004,False,False,0.5918,Cs: 0.2857; Te: 0.7143
mp-2168,SnSe,"Se, Sn",2,0.02414671374999955,Orthorhombic,63,Cmcm,0.48519999999999985,False,False,0.2950,Sn: 0.5000; Se: 0.5000
mp-715664,V4O9,"O, V",2,0.09689106692307803,Orthorhombic,63,Cmcm,0.37670000000000003,False,False,0.8354,V: 0.3077; O: 0.6923
mp-571555,InCl,"Cl, In",2,0.0031331506249987484,Orthorhombic,63,Cmcm,1.4744000000000002,False,False,0.6900,In: 0.5000; Cl: 0.5000
mp-568949,TlBr,"Br, Tl",2,0.0,Orthorhombic,63,Cmcm,2.1678,False,False,0.6700,Tl: 0.5000; Br: 0.5000
mp-560809,SiO2,"O, Si",2,0.016937440694444916,Orthorhombic,63,Cmcm,5.4481,False,False,0.7260,Si: 0.3333; O: 0.6667
mp-605,ZrTe5,"Te, Zr",2,0.0,Orthorhombic,63,Cmcm,0.01920000000000055,False,False,0.2870,Zr: 0.1667; Te: 0.8333
mp-667368,SiO2,"O, Si",2,0.01209107489583161,Orthorhombic,71,Immm,5.5885,False,False,0.7260,Si: 0.3333; O: 0.6667
mp-15078,SiO2,"O, Si",2,0.01758040759259316,Orthorhombic,71,Immm,5.6044,False,False,0.7260,Si: 0.3333; O: 0.6667
mp-558071,RbS,"Rb, S",2,0.0018650299999998232,Orthorhombic,71,Immm,1.7115,False,False,0.8800,Rb: 0.5000; S: 0.5000
mp-1378,LiC,"C, Li",2,0.01581632847222192,Orthorhombic,71,Immm,3.2727,False,False,0.7850,Li: 0.5000; C: 0.5000
mp-27710,CrB4,"B, Cr",2,0.008563825999999608,Orthorhombic,71,Immm,0.13060000000000027,False,False,0.1520,Cr: 0.2000; B: 0.8000
mp-29266,CsS,"Cs, S",2,0.0,Orthorhombic,71,Immm,1.7260000000000002,False,False,0.8950,Cs: 0.5000; S: 0.5000
mp-7895,Rb2O2,"O, Rb",2,0.0,Orthorhombic,71,Immm,1.7600000000000002,False,False,1.3100,Rb: 0.5000; O: 0.5000
mp-7896,Cs2O2,"Cs, O",2,0.0,Orthorhombic,71,Immm,1.6496,False,False,1.3250,Cs: 0.5000; O: 0.5000
mp-29783,B5H9,"B, H",2,0.019773636241883885,Tetragonal,76,P4_1,5.9591,False,False,0.0767,B: 0.3571; H: 0.6429
mp-541113,Cs3P7,"Cs, P",2,0.0,Tetragonal,76,P4_1,2.3466000000000005,False,False,0.6416,Cs: 0.3000; P: 0.7000
mp-721582,H2S,"H, S",2,0.013522283750000419,Tetragonal,77,P4_2,4.0299,False,False,0.1791,H: 0.6667; S: 0.3333
mp-557933,SiO2,"O, Si",2,0.013428656111113213,Orthorhombic,74,Imma,5.5245,False,False,0.7260,Si: 0.3333; O: 0.6667
mp-600037,SiO2,"O, Si",2,0.022893965555557116,Orthorhombic,74,Imma,5.4426,False,False,0.7260,Si: 0.3333; O: 0.6667
mp-558326,SiO2,"O, Si",2,0.01108713018518337,Orthorhombic,74,Imma,5.587,False,False,0.7260,Si: 0.3333; O: 0.6667
mp-569128,SiB3,"B, Si",2,0.0,Orthorhombic,74,Imma,1.4080000000000004,False,False,0.0606,Si: 0.2500; B: 0.7500
mp-560336,SiO2,"O, Si",2,0.012782281249998917,Orthorhombic,74,Imma,5.5874,False,False,0.7260,Si: 0.3333; O: 0.6667
mp-978275,MgB7,"B, Mg",2,0.0,Orthorhombic,74,Imma,1.4592,False,False,0.2414,Mg: 0.1250; B: 0.8750
mp-27257,PBr3,"Br, P",2,0.0,Orthorhombic,62,Pnma,3.3373999999999997,False,False,0.3334,P: 0.2500; Br: 0.7500
mp-2242,GeS,"Ge, S",2,0.0,Orthorhombic,62,Pnma,1.2375999999999996,False,False,0.2850,Ge: 0.5000; S: 0.5000
mp-1079172,PbSe,"Pb, Se",2,0.05258041249999934,Orthorhombic,62,Pnma,1.0663,False,False,0.1100,Pb: 0.5000; Se: 0.5000
mp-1105966,Gd2Te3,"Gd, Te",2,0.0,Orthorhombic,62,Pnma,0.11299999999999955,False,False,0.4409,Gd: 0.4000; Te: 0.6000
mp-7384,SmF3,"F, Sm",2,0.0,Orthorhombic,62,Pnma,7.7298,False,False,1.2168,Sm: 0.2500; F: 0.7500
mp-1403,Sm2S3,"S, Sm",2,0.0,Orthorhombic,62,Pnma,0.7441,False,False,0.6908,Sm: 0.4000; S: 0.6000
mp-27456,BaBr2,"Ba, Br",2,0.0,Orthorhombic,62,Pnma,4.3731,False,False,0.9758,Ba: 0.3333; Br: 0.6667
mp-700,GeSe,"Ge, Se",2,0.0,Orthorhombic,62,Pnma,0.8988,False,False,0.2700,Ge: 0.5000; Se: 0.5000
mp-568284,SrI2,"I, Sr",2,0.0,Orthorhombic,62,Pnma,3.8019999999999996,False,False,0.8061,Sr: 0.3333; I: 0.6667
mp-1205297,Tb2S3,"S, Tb",2,0.005354568999997866,Orthorhombic,62,Pnma,0.7330999999999994,False,False,0.6712,Tb: 0.4000; S: 0.6000
mp-27412,V4O9,"O, V",2,0.04474085923077098,Orthorhombic,62,Pnma,0.40510000000000024,False,False,0.8354,V: 0.3077; O: 0.6923
mp-304,Ca2Ge,"Ca, Ge",2,0.0017492858333341132,Orthorhombic,62,Pnma,0.29990000000000006,False,False,0.4761,Ca: 0.6667; Ge: 0.3333
mp-691,SnSe,"Se, Sn",2,0.0,Orthorhombic,62,Pnma,0.5159000000000002,False,False,0.2950,Sn: 0.5000; Se: 0.5000
mp-365,MgB4,"B, Mg",2,0.0,Orthorhombic,62,Pnma,0.36409999999999965,False,False,0.2920,Mg: 0.2000; B: 0.8000
mp-1188323,Ti2O3,"O, Ti",2,0.0015292189999982497,Orthorhombic,62,Pnma,0.11629999999999896,False,False,0.9308,Ti: 0.4000; O: 0.6000
mp-8956,Ho2S3,"Ho, S",2,0.010577942833336351,Orthorhombic,62,Pnma,0.6113999999999997,False,False,0.6614,Ho: 0.4000; S: 0.6000
mp-1102240,SrF2,"F, Sr",2,0.06457278833333113,Orthorhombic,62,Pnma,6.341,False,False,1.4284,Sr: 0.3333; F: 0.6667
mp-1195265,SiO2,"O, Si",2,0.01200437673610999,Orthorhombic,62,Pnma,5.7794,False,False,0.7260,Si: 0.3333; O: 0.6667
mp-1477,BaSi2,"Ba, Si",2,0.0,Orthorhombic,62,Pnma,0.7812999999999999,False,False,0.4761,Ba: 0.3333; Si: 0.6667
mp-23237,BiF3,"Bi, F",2,0.0,Orthorhombic,62,Pnma,4.6808,False,False,0.8487,Bi: 0.2500; F: 0.7500
mp-1509,Sn2S3,"S, Sn",2,0.0,Orthorhombic,62,Pnma,0.7774000000000001,False,False,0.3037,Sn: 0.4000; S: 0.6000
mp-647343,PBr7,"Br, P",2,0.0,Orthorhombic,62,Pnma,1.2227,False,False,0.2547,P: 0.1250; Br: 0.8750
mp-2139,BaGe2,"Ba, Ge",2,0.0,Orthorhombic,62,Pnma,0.5255000000000001,False,False,0.5280,Ba: 0.3333; Ge: 0.6667
mp-2173,P2O5,"O, P",2,0.0,Orthorhombic,62,Pnma,4.8374,False,False,0.5647,P: 0.2857; O: 0.7143
mp-7475,La2S3,"La, S",2,0.0,Orthorhombic,62,Pnma,1.0358,False,False,0.7250,La: 0.4000; S: 0.6000
mp-680294,Tl2Cl3,"Cl, Tl",2,0.0,Orthorhombic,62,Pnma,1.6868000000000003,False,False,0.7544,Tl: 0.4000; Cl: 0.6000
mp-556767,ClF3,"Cl, F",2,0.0029946146875001745,Orthorhombic,62,Pnma,2.6321000000000003,False,False,0.3551,Cl: 0.2500; F: 0.7500
mp-1011696,Cs2Se,"Cs, Se",2,0.004232759166664213,Orthorhombic,62,Pnma,1.8026999999999997,False,False,0.8297,Cs: 0.6667; Se: 0.3333
mp-25288,V2O5,"O, V",2,0.013959122857142958,Orthorhombic,62,Pnma,2.3402,False,False,0.8177,V: 0.2857; O: 0.7143
mp-28974,TiF4,"F, Ti",2,0.0,Orthorhombic,62,Pnma,4.166,False,False,0.9760,Ti: 0.2000; F: 0.8000
mp-541189,P4Se3,"P, Se",2,0.014978764523808863,Orthorhombic,62,Pnma,2.1599999999999997,False,False,0.1782,P: 0.5714; Se: 0.4286
mp-567744,SrBr2,"Br, Sr",2,0.0012161111666664226,Orthorhombic,62,Pnma,4.5488,False,False,0.9475,Sr: 0.3333; Br: 0.6667
mp-27309,VF5,"F, V",2,0.0,Orthorhombic,62,Pnma,2.9917000000000002,False,False,0.8758,V: 0.1667; F: 0.8333
mp-569094,P4Se3,"P, Se",2,0.012687520505952676,Orthorhombic,62,Pnma,2.1677,False,False,0.1782,P: 0.5714; Se: 0.4286
mp-30103,AuF5,"Au, F",2,0.0,Orthorhombic,62,Pnma,0.7890000000000001,False,False,0.5367,Au: 0.1667; F: 0.8333
mp-568846,TaBr5,"Br, Ta",2,0.0,Orthorhombic,62,Pnma,2.0282999999999998,False,False,0.5441,Ta: 0.1667; Br: 0.8333
mp-1188155,ReP3,"P, Re",2,0.010871705625003614,Orthorhombic,62,Pnma,0.20690000000000097,False,False,0.1256,Re: 0.2500; P: 0.7500
mp-27356,AsO2,"As, O",2,0.00379810145833126,Orthorhombic,62,Pnma,3.3759,False,False,0.5940,As: 0.3333; O: 0.6667
mp-27543,As4S3,"As, S",2,0.006355647857141378,Orthorhombic,62,Pnma,2.3035,False,False,0.1979,As: 0.5714; S: 0.4286
mp-23199,BaCl2,"Ba, Cl",2,0.006785772499999787,Orthorhombic,62,Pnma,5.1132,False,False,1.0701,Ba: 0.3333; Cl: 0.6667
mp-1125,Li2S,"Li, S",2,0.061509288333333245,Orthorhombic,62,Pnma,3.8953999999999995,False,False,0.7542,Li: 0.6667; S: 0.3333
mp-555585,BaF2,"Ba, F",2,0.01871512666666586,Orthorhombic,62,Pnma,6.855300000000001,False,False,1.4566,Ba: 0.3333; F: 0.6667
mp-28329,TlI3,"I, Tl",2,0.0,Orthorhombic,62,Pnma,1.6963,False,False,0.4503,Tl: 0.2500; I: 0.7500
mp-15257,Tb2Se3,"Se, Tb",2,0.0,Orthorhombic,62,Pnma,0.3411000000000004,False,False,0.6565,Tb: 0.4000; Se: 0.6000
mp-569152,SnCl2,"Cl, Sn",2,0.00045985916666424487,Orthorhombic,62,Pnma,3.0724,False,False,0.5657,Sn: 0.3333; Cl: 0.6667
mp-557259,MoF6,"F, Mo",2,0.0,Orthorhombic,62,Pnma,4.182799999999999,False,False,0.6369,Mo: 0.1429; F: 0.8571
mp-28601,NbBr5,"Br, Nb",2,0.0,Orthorhombic,62,Pnma,1.5583,False,False,0.5068,Nb: 0.1667; Br: 0.8333
mp-22872,SbCl3,"Cl, Sb",2,0.0,Orthorhombic,62,Pnma,3.7476,False,False,0.4806,Sb: 0.2500; Cl: 0.7500
mp-2416,YF3,"F, Y",2,0.0,Orthorhombic,62,Pnma,7.545699999999999,False,False,1.1951,Y: 0.2500; F: 0.7500
mp-1106290,Er2S3,"Er, S",2,0.014340711166664022,Orthorhombic,62,Pnma,0.6266999999999996,False,False,0.6565,Er: 0.4000; S: 0.6000
mp-974,Tm2S3,"S, Tm",2,0.03450978525000181,Orthorhombic,62,Pnma,0.6559999999999997,False,False,0.6516,Tm: 0.4000; S: 0.6000