material_id,formula,elements,num_elements,energy_above_hull,crystal_system,spacegroup_number,spacegroup_symbol,band_gap,theoretical,is_metal,electronegativity_difference
mp-2128,Sn4Pd,"Pd, Sn",2,0.05176513800000038,Orthorhombic,68,Ccce,0.0,False,True,0.09600000000000009
mp-20662,Sn4Pt,"Pt, Sn",2,0.04449678800000356,Orthorhombic,68,Ccce,0.0,False,True,0.12799999999999995
mp-1200062,Ga16Rh3,"Ga, Rh",2,0.007414168881578753,Orthorhombic,68,Ccce,0.0,False,True,0.17138186938049935
mp-1094630,MgGa2,"Ga, Mg",2,0.062204449999999856,Orthorhombic,63,Cmcm,0.0,True,True,0.23570226039551584
mp-2626,Zr3Rh5,"Rh, Zr",2,0.0,Orthorhombic,63,Cmcm,0.0,False,True,0.45991677236213063
mp-1204410,VIr,"Ir, V",2,0.0244569559375023,Orthorhombic,63,Cmcm,0.0,True,True,0.28500000000000014
mp-11228,YAl,"Al, Y",2,0.0,Orthorhombic,63,Cmcm,0.0,False,True,0.19500000000000006
mp-8053,YCo,"Co, Y",2,0.031467607499997996,Orthorhombic,63,Cmcm,0.0,False,True,0.32999999999999996
mp-11420,YGa,"Ga, Y",2,0.0,Orthorhombic,63,Cmcm,0.0,False,True,0.29500000000000004
mp-1066254,YAu,"Au, Y",2,0.0,Orthorhombic,63,Cmcm,0.0,False,True,0.66
mp-31205,Zr3Fe,"Fe, Zr",2,0.0,Orthorhombic,63,Cmcm,0.0,False,True,0.21650635094610965
mp-16770,Ca2Ag7,"Ag, Ca",2,0.0,Orthorhombic,63,Cmcm,0.0,False,True,0.3866379299666406
mp-1185898,MgIn2,"In, Mg",2,0.012660014629628957,Orthorhombic,63,Cmcm,0.0,True,True,0.22156012477178486
mp-1185857,MgAu2,"Au, Mg",2,0.014837099666663356,Orthorhombic,63,Cmcm,0.0,True,True,0.5798275605729689
mp-1094285,Sr2Mg,"Mg, Sr",2,0.08398228499999982,Orthorhombic,63,Cmcm,0.0,True,True,0.16970562748477144
mp-1094469,Mg2Zn,"Mg, Zn",2,0.08092532820000042,Orthorhombic,63,Cmcm,0.0,True,True,0.1602775370689507
mp-1188074,Zn3In,"In, Zn",2,0.06645094749999991,Orthorhombic,63,Cmcm,0.0,True,True,0.05629165124598856
mp-13453,BePd3,"Be, Pd",2,0.0,Orthorhombic,63,Cmcm,0.0,False,True,0.2727980021920982
mp-568992,ZrIr,"Ir, Zr",2,0.0,Orthorhombic,63,Cmcm,0.0,False,True,0.43500000000000005
mp-13010,YSn2,"Sn, Y",2,0.0,Orthorhombic,63,Cmcm,0.0,False,True,0.34883934538536343
mp-1094981,MgBi2,"Bi, Mg",2,0.07267076333333211,Orthorhombic,63,Cmcm,0.0,True,True,0.3346972097616324
mp-1094198,MgZn2,"Mg, Zn",2,0.08034514499999879,Orthorhombic,63,Cmcm,0.0,True,True,0.1602775370689507
mp-1002133,LaGa,"Ga, La",2,0.0,Orthorhombic,63,Cmcm,0.0,False,True,0.355
mp-1039317,Ca2Mg,"Ca, Mg",2,0.02264124749999996,Orthorhombic,63,Cmcm,0.0,True,True,0.14613540144521983
mp-1094757,MgCd2,"Cd, Mg",2,0.03903750722222199,Orthorhombic,63,Cmcm,0.0,True,True,0.179133717900592
mp-173,MnAl6,"Al, Mn",2,0.0,Orthorhombic,63,Cmcm,0.0,False,True,0.020995626366712972
mp-1094804,MgCd2,"Cd, Mg",2,0.009266233888889586,Orthorhombic,63,Cmcm,0.0,True,True,0.179133717900592
mp-1094440,Mg2Zn,"Mg, Zn",2,0.046294391533334034,Orthorhombic,63,Cmcm,0.0,True,True,0.1602775370689507
mp-30408,MgAu3,"Au, Mg",2,0.001985315124994891,Orthorhombic,63,Cmcm,0.0,False,True,0.5326056233274298
mp-21093,SrPb,"Pb, Sr",2,0.0,Orthorhombic,63,Cmcm,0.0,False,True,0.6900000000000001
mp-31324,Li2In,"In, Li",2,0.0,Orthorhombic,63,Cmcm,0.0,False,True,0.3771236166328254
mp-30485,Ca3Zn,"Ca, Zn",2,0.01449339624999979,Orthorhombic,63,Cmcm,0.0,False,True,0.2814582562299425
mp-1094574,LiMg2,"Li, Mg",2,0.038412115000000746,Orthorhombic,63,Cmcm,0.0,True,True,0.1555634918610405
mp-1397279,Sr2Mg,"Mg, Sr",2,0.028869791666666478,Orthorhombic,63,Cmcm,0.0,True,True,0.16970562748477144
mp-1094878,MgBi2,"Bi, Mg",2,0.07979651833333223,Orthorhombic,63,Cmcm,0.0,True,True,0.3346972097616324
mp-29210,Li2Ga,"Ga, Li",2,0.0,Orthorhombic,63,Cmcm,0.0,False,True,0.3912657522565563
mp-872,BaSn,"Ba, Sn",2,0.0,Orthorhombic,63,Cmcm,0.0,False,True,0.5349999999999999
mp-1185754,Mg2Ag,"Ag, Mg",2,0.015098881666666841,Orthorhombic,63,Cmcm,0.0,True,True,0.2922708028904396
mp-1207393,Zr3Ga5,"Ga, Zr",2,0.0,Orthorhombic,63,Cmcm,0.0,False,True,0.232379000772445
mp-1185798,Mg2In,"In, Mg",2,0.0688558642592576,Orthorhombic,63,Cmcm,0.0,True,True,0.22156012477178488
mp-1016109,ZrZn16,"Zn, Zr",2,0.01426924735294044,Orthorhombic,63,Cmcm,0.0,True,True,0.07529411764705879
mp-1094403,YMg2,"Mg, Y",2,0.07043669166666655,Orthorhombic,63,Cmcm,0.0,True,True,0.04242640687119289
mp-973374,LiMg2,"Li, Mg",2,0.02857837166666677,Orthorhombic,63,Cmcm,0.0,True,True,0.1555634918610405
mp-1094936,Mg2Cd,"Cd, Mg",2,0.009775568611110952,Orthorhombic,63,Cmcm,0.0,True,True,0.179133717900592
mp-1094163,LaMg2,"La, Mg",2,0.08753851083333375,Orthorhombic,63,Cmcm,0.0,True,True,0.09899494936611664
mp-1002136,LaAu,"Au, La",2,0.0,Orthorhombic,63,Cmcm,0.0,False,True,0.72
mp-2327,TiZn16,"Ti, Zn",2,0.0,Orthorhombic,63,Cmcm,0.0,False,True,0.02588235294117644
mp-567181,ZrRh,"Rh, Zr",2,0.0005148862499986251,Orthorhombic,63,Cmcm,0.0,False,True,0.47499999999999987
mp-1094521,MgSn2,"Mg, Sn",2,0.08361634750000047,Orthorhombic,63,Cmcm,0.0,True,True,0.30641293851417056
mp-1094209,Mg2Sn,"Mg, Sn",2,0.09421770666666607,Orthorhombic,63,Cmcm,0.0,True,True,0.30641293851417056
mp-13495,ZrPd,"Pd, Zr",2,0.0,Orthorhombic,63,Cmcm,0.0,False,True,0.43500000000000005
mp-1018057,HfBe,"Be, Hf",2,0.0590801495000024,Orthorhombic,63,Cmcm,0.0,False,True,0.135
mp-1079460,Ti3Sn,"Sn, Ti",2,0.0,Orthorhombic,63,Cmcm,0.0,False,True,0.1818653347947321
mp-1002104,LaPt,"La, Pt",2,0.0,Orthorhombic,63,Cmcm,0.0,False,True,0.5899999999999999
mp-12723,CaAu,"Au, Ca",2,0.0,Orthorhombic,63,Cmcm,0.0,False,True,0.77
mp-6914,CaGa,"Ca, Ga",2,0.0,Orthorhombic,63,Cmcm,0.0,False,True,0.405
mp-31509,BaIn,"Ba, In",2,0.0,Orthorhombic,63,Cmcm,0.0,False,True,0.445
mp-1189230,Ca3Tl5,"Ca, Tl",2,0.0,Orthorhombic,63,Cmcm,0.0,False,True,0.30015620933107484
mp-1039393,CaMg2,"Ca, Mg",2,0.06682238333333235,Orthorhombic,63,Cmcm,0.0,True,True,0.14613540144521983
mp-1007692,HfPd,"Hf, Pd",2,0.0,Orthorhombic,63,Cmcm,0.0,True,True,0.45000000000000007
mp-1039421,Ca2Mg,"Ca, Mg",2,0.08892180749999956,Orthorhombic,63,Cmcm,0.0,True,True,0.14613540144521983
mp-255,NaHg,"Hg, Na",2,0.0,Orthorhombic,63,Cmcm,0.0,False,True,0.5349999999999999
mp-1208530,Zn74Pd21,"Pd, Zn",2,0.0,Orthorhombic,63,Cmcm,0.0,True,True,0.22822572293547091
mp-1198760,Na5Sn13,"Na, Sn",2,0.034130043611110494,Orthorhombic,63,Cmcm,0.0,False,True,0.4613403044859725
mp-1387551,Y2Mg,"Mg, Y",2,0.03677812000000191,Orthorhombic,63,Cmcm,0.0,True,True,0.04242640687119289
mp-1094616,MgGa2,"Ga, Mg",2,0.06969481666666644,Orthorhombic,63,Cmcm,0.0,True,True,0.23570226039551584
mp-1094763,MgCd2,"Cd, Mg",2,0.00749780722222293,Orthorhombic,63,Cmcm,0.0,True,True,0.179133717900592
mp-1104563,MnGa6,"Ga, Mn",2,0.09716602642857275,Orthorhombic,63,Cmcm,0.0,False,True,0.09098104758908948
mp-1185822,MgAg2,"Ag, Mg",2,0.011627834166669349,Orthorhombic,63,Cmcm,0.0,True,True,0.2922708028904396
mp-864941,MgSc2,"Mg, Sc",2,0.0,Orthorhombic,63,Cmcm,0.0,True,True,0.023570226039551605
mp-1007691,HfPt,"Hf, Pt",2,0.0,Orthorhombic,63,Cmcm,0.0,False,True,0.4899999999999999
mp-1016106,HfZn16,"Hf, Zn",2,0.0,Orthorhombic,63,Cmcm,0.0,True,True,0.08235294117647056
mp-1094170,La2Mg,"La, Mg",2,0.09954270666666742,Orthorhombic,63,Cmcm,0.0,True,True,0.09899494936611664
mp-1185940,MgPb2,"Mg, Pb",2,0.04891857833333413,Orthorhombic,63,Cmcm,0.0,True,True,0.4808326112068523
mp-1094593,LiMg2,"Li, Mg",2,0.027506143333333455,Orthorhombic,63,Cmcm,0.0,True,True,0.1555634918610405
mp-982070,VIr,"Ir, V",2,0.011177717500004292,Orthorhombic,63,Cmcm,0.0,True,True,0.28500000000000014
mp-1008505,BaPd,"Ba, Pd",2,0.005573382499999724,Orthorhombic,63,Cmcm,0.026799999999999713,False,False,0.655
mp-1078955,NaTl,"Na, Tl",2,0.04593826749999863,Orthorhombic,63,Cmcm,0.0,False,True,0.34500000000000003
mp-1094658,Mg2Ga,"Ga, Mg",2,0.09757622444444403,Orthorhombic,63,Cmcm,0.0,True,True,0.23570226039551584
mp-1094437,Mg2Zn,"Mg, Zn",2,0.059813491533333485,Orthorhombic,63,Cmcm,0.0,True,True,0.1602775370689507
mp-1212407,HfBi,"Bi, Hf",2,0.0,Orthorhombic,63,Cmcm,0.0,True,True,0.36
mp-680682,K3Ga13,"Ga, K",2,0.0,Orthorhombic,63,Cmcm,0.0,False,True,0.3864092511509009
mp-1064719,LaNi,"La, Ni",2,0.0,Orthorhombic,63,Cmcm,0.0,False,True,0.4049999999999999
mp-1077466,CaBi2,"Bi, Ca",2,0.0,Orthorhombic,63,Cmcm,0.0,False,True,0.4808326112068523
mp-640041,NbZn16,"Nb, Zn",2,0.0,Orthorhombic,63,Cmcm,0.0,False,True,0.0117647058823529
mp-16528,Al6Re,"Al, Re",2,0.00833126496138803,Orthorhombic,63,Cmcm,0.0,False,True,0.10147886077244588
mp-31502,ScCd7,"Cd, Sc",2,0.0,Orthorhombic,63,Cmcm,0.0,False,True,0.10913724158141432
mp-249,HfAl,"Al, Hf",2,0.01635615999999729,Orthorhombic,63,Cmcm,0.0,False,True,0.15500000000000003
mp-1105835,Y3In5,"In, Y",2,0.0,Orthorhombic,63,Cmcm,0.0,False,True,0.2711088342345192
mp-1094275,MgTi2,"Mg, Ti",2,0.08825148944444283,Orthorhombic,63,Cmcm,0.0,True,True,0.10842303978193728
mp-1094422,Mg2Zn,"Mg, Zn",2,0.03655034320000028,Orthorhombic,63,Cmcm,0.0,True,True,0.1602775370689507
mp-999143,SrPd,"Pd, Sr",2,0.0,Orthorhombic,63,Cmcm,0.0,False,True,0.6250000000000001
mp-1094281,Sr2Mg,"Mg, Sr",2,0.02683906250000012,Orthorhombic,63,Cmcm,0.0,True,True,0.16970562748477144
mp-981211,ZnIn3,"In, Zn",2,0.09933025375000071,Orthorhombic,63,Cmcm,0.0,True,True,0.05629165124598856
mp-556,ZrNi,"Ni, Zr",2,0.0,Orthorhombic,63,Cmcm,0.0,False,True,0.2899999999999999
mp-1039255,Mg2Cd,"Cd, Mg",2,0.034912056944444325,Orthorhombic,63,Cmcm,0.0,True,True,0.179133717900592
mp-30933,ZrBi,"Bi, Zr",2,0.0,Orthorhombic,63,Cmcm,0.0,False,True,0.345
mp-2349,YCd3,"Cd, Y",2,0.0,Orthorhombic,63,Cmcm,0.0,False,True,0.20351596988934306
mp-30619,Zr3Co,"Co, Zr",2,0.017004411249999407,Orthorhombic,63,Cmcm,0.0,False,True,0.23815698604072055
mp-1072655,ZrCu2,"Cu, Zr",2,0.04563081384615497,Orthorhombic,63,Cmcm,0.0,True,True,0.268700576850888
mp-30840,Ti2Pd3,"Pd, Ti",2,0.0,Orthorhombic,63,Cmcm,0.0,False,True,0.3233326460473796
mp-1185823,MgAg2,"Ag, Mg",2,0.02966171083333302,Orthorhombic,63,Cmcm,0.0,True,True,0.2922708028904396
mp-976378,La3Sn4,"La, Sn",2,0.0,Orthorhombic,63,Cmcm,0.0,False,True,0.42558962700263836
mp-570001,Al6Fe,"Al, Fe",2,0.0025397078571423037,Orthorhombic,63,Cmcm,0.0,False,True,0.07698396334461416
mp-1038882,MgCd2,"Cd, Mg",2,0.03456027388888927,Orthorhombic,63,Cmcm,0.0,True,True,0.179133717900592
mp-1039382,CaMg2,"Ca, Mg",2,0.07364582999999891,Orthorhombic,63,Cmcm,0.0,True,True,0.14613540144521983
mp-1188539,Sr3Tl5,"Sr, Tl",2,0.008633411249995504,Orthorhombic,63,Cmcm,0.0,False,True,0.3243623552448712
mp-985805,AlAg2,"Ag, Al",2,0.007656157999999635,Orthorhombic,63,Cmcm,0.0,True,True,0.15084944665313005
mp-18636,Ba3Sn5,"Ba, Sn",2,0.0,Orthorhombic,63,Cmcm,0.0,False,True,0.518011522555242
mp-1185916,MgIn2,"In, Mg",2,0.012865184629629933,Orthorhombic,63,Cmcm,0.0,True,True,0.22156012477178486
mp-1094424,Y2Mg,"Mg, Y",2,0.09723579000000182,Orthorhombic,63,Cmcm,0.0,True,True,0.04242640687119289
mp-11411,ScGa,"Ga, Sc",2,0.0,Orthorhombic,63,Cmcm,0.0,False,True,0.22499999999999998
mp-1195862,Cu3Sn,"Cu, Sn",2,0.026856783000001272,Orthorhombic,63,Cmcm,0.0,True,True,0.025980762113533184
mp-1207757,Y3Tl5,"Tl, Y",2,0.0,Orthorhombic,63,Cmcm,0.0,False,True,0.1936491673103709
mp-1094697,Mg2Cd,"Cd, Mg",2,0.0320263519444437,Orthorhombic,63,Cmcm,0.0,True,True,0.179133717900592
mp-1080094,SrHg3,"Hg, Sr",2,0.004651952499999279,Orthorhombic,63,Cmcm,0.0,True,True,0.4546633369868303
mp-18192,Sr3Sn5,"Sn, Sr",2,0.0,Orthorhombic,63,Cmcm,0.0,False,True,0.4889641474586864
mp-1038840,Ca2Mg,"Ca, Mg",2,0.046504110833332835,Orthorhombic,63,Cmcm,0.0,True,True,0.14613540144521983
mp-1002107,LaRh,"La, Rh",2,0.0,Orthorhombic,63,Cmcm,0.08119999999999994,False,False,0.5899999999999999
mp-1094586,Li2Mg,"Li, Mg",2,0.010662397777777333,Orthorhombic,63,Cmcm,0.0,True,True,0.1555634918610405
mp-1698,SrSn,"Sn, Sr",2,0.0,Orthorhombic,63,Cmcm,0.0,False,True,0.505
mp-1094195,La2Mg,"La, Mg",2,0.06450296166666636,Orthorhombic,63,Cmcm,0.0,True,True,0.09899494936611664
mp-1002115,LaPd,"La, Pd",2,0.0,Orthorhombic,63,Cmcm,0.0,False,True,0.55
mp-1193435,Na9Sn4,"Na, Sn",2,2.691038461222206e-05,Orthorhombic,63,Cmcm,0.0,False,True,0.47538461538461535
mp-1066136,YPd,"Pd, Y",2,0.0,Orthorhombic,63,Cmcm,0.0,False,True,0.4900000000000001
mp-1018056,HfNi,"Hf, Ni",2,0.0,Orthorhombic,63,Cmcm,0.0,False,True,0.30499999999999994
mp-1094613,Mg2Ga,"Ga, Mg",2,0.08528234611111074,Orthorhombic,63,Cmcm,0.0,True,True,0.23570226039551584
mp-1094671,Mg2Ga,"Ga, Mg",2,0.06218155944444392,Orthorhombic,63,Cmcm,0.0,True,True,0.23570226039551584
mp-1094483,MgZn2,"Mg, Zn",2,0.0733274216666655,Orthorhombic,63,Cmcm,0.0,True,True,0.1602775370689507
mp-1065995,ZrPt,"Pt, Zr",2,0.0,Orthorhombic,63,Cmcm,0.0,False,True,0.47499999999999987
mp-1094642,Mg2Ga,"Ga, Mg",2,0.08082856944444394,Orthorhombic,63,Cmcm,0.0,True,True,0.23570226039551584
mp-12684,LaAl,"Al, La",2,0.0,Orthorhombic,63,Cmcm,0.0,False,True,0.255
mp-303,BaZn5,"Ba, Zn",2,0.0,Orthorhombic,63,Cmcm,0.0,False,True,0.2832352771499733
mp-1106000,La3Tl5,"La, Tl",2,0.0,Orthorhombic,63,Cmcm,0.0,False,True,0.25174391750348213
mp-1077191,Li2Tl,"Li, Tl",2,0.0,Orthorhombic,63,Cmcm,0.0,False,True,0.3016988933062603
mp-31253,Ga2Ir,"Ga, Ir",2,0.0,Orthorhombic,63,Cmcm,0.0,False,True,0.18384776310850243
mp-1185876,MgHg2,"Hg, Mg",2,0.043008662499997796,Orthorhombic,63,Cmcm,0.0,True,True,0.3252691193458118
mp-1077023,TiCu2,"Cu, Ti",2,0.0,Orthorhombic,63,Cmcm,0.0,False,True,0.16970562748477133
mp-11233,ZrAl,"Al, Zr",2,0.018204155999997695,Orthorhombic,63,Cmcm,0.0,False,True,0.14
mp-1188370,La3Sn5,"La, Sn",2,0.0033114933749978093,Orthorhombic,63,Cmcm,0.0,False,True,0.41634570971729723
mp-714,SrSn4,"Sn, Sr",2,0.04333420733333426,Orthorhombic,63,Cmcm,0.0,False,True,0.404
mp-1094389,Y2Mg,"Mg, Y",2,0.033438483333334545,Orthorhombic,63,Cmcm,0.0,True,True,0.04242640687119289
mp-16718,Al6Tc,"Al, Tc",2,0.01602835678571246,Orthorhombic,63,Cmcm,0.0,False,True,0.10147886077244588
mp-1094272,Zr2Sn,"Sn, Zr",2,0.08494292833333716,Orthorhombic,63,Cmcm,0.0,True,True,0.2969848480983499
mp-1091387,CaHg3,"Ca, Hg",2,0.006354850000001022,Orthorhombic,63,Cmcm,0.0,True,True,0.4330127018922193
mp-1038792,MgBi2,"Bi, Mg",2,0.09054885666666568,Orthorhombic,63,Cmcm,0.0,True,True,0.3346972097616324
mp-1094579,LiMg2,"Li, Mg",2,0.034397095000000544,Orthorhombic,63,Cmcm,0.0,True,True,0.1555634918610405
mp-30849,TaPt2,"Pt, Ta",2,0.0,Orthorhombic,63,Cmcm,0.0,False,True,0.36769552621700463
mp-976982,Li2Mg,"Li, Mg",2,0.004825256111111287,Orthorhombic,63,Cmcm,0.0,True,True,0.1555634918610405
mp-636614,YPb2,"Pb, Y",2,0.0,Orthorhombic,63,Cmcm,0.0,False,True,0.5232590180780452
mp-16529,Al6Ru,"Al, Ru",2,0.0,Orthorhombic,63,Cmcm,0.0,False,True,0.20645699260601075
mp-861620,LaZn4,"La, Zn",2,0.0,Orthorhombic,63,Cmcm,0.0,False,True,0.21999999999999995
mp-1039340,Ca2Mg,"Ca, Mg",2,0.038685292499999635,Orthorhombic,63,Cmcm,0.0,True,True,0.14613540144521983
mp-30483,CaZn,"Ca, Zn",2,0.0,Orthorhombic,63,Cmcm,0.0,False,True,0.32499999999999996
mp-1094909,Mg2Cd,"Cd, Mg",2,0.0008533286111112037,Orthorhombic,63,Cmcm,0.0,True,True,0.179133717900592
mp-30473,Ca3Ga5,"Ca, Ga",2,0.0,Orthorhombic,63,Cmcm,0.0,False,True,0.392139563803501
mp-538,CaAg,"Ag, Ca",2,0.0,Orthorhombic,63,Cmcm,0.0,False,True,0.46499999999999997
mp-1094659,MgGa2,"Ga, Mg",2,0.09046674333333282,Orthorhombic,63,Cmcm,0.0,True,True,0.23570226039551584
mp-1185774,Mg2Sc,"Mg, Sc",2,0.00539421333333312,Orthorhombic,63,Cmcm,0.0,True,True,0.023570226039551605
mp-977218,Li2Mg,"Li, Mg",2,0.01781477944444454,Orthorhombic,63,Cmcm,0.0,True,True,0.1555634918610405
mp-30423,VAu2,"Au, V",2,0.028054426666670906,Orthorhombic,63,Cmcm,0.0,False,True,0.42897811391983887
mp-1210753,Li2Al,"Al, Li",2,0.0,Orthorhombic,63,Cmcm,0.0,True,True,0.29698484809835
mp-630923,Ba3Pb5,"Ba, Pb",2,0.0,Orthorhombic,63,Cmcm,0.0,False,True,0.6971370023173351
mp-2450,CaSn,"Ca, Sn",2,0.0,Orthorhombic,63,Cmcm,0.0,False,True,0.48
mp-20136,BaPb,"Ba, Pb",2,0.0,Orthorhombic,63,Cmcm,0.0,False,True,0.72
mp-1067248,TiNi,"Ni, Ti",2,0.0020067824999996375,Orthorhombic,63,Cmcm,0.0,True,True,0.18499999999999994
mp-570017,MgAu3,"Au, Mg",2,0.0,Orthorhombic,63,Cmcm,0.0,True,True,0.5326056233274298
mp-1221484,Mo2Rh,"Mo, Rh",2,0.0699764716666671,Orthorhombic,69,Fmmm,0.0,True,True,0.05656854249492364
mp-1226230,CrFe4,"Cr, Fe",2,0.027971407999999087,Orthorhombic,69,Fmmm,0.0,True,True,0.06800000000000006
mp-1216675,TiMo2,"Mo, Ti",2,0.061337100370366215,Orthorhombic,69,Fmmm,0.0,True,True,0.29227080289043966
mp-1220634,Nb2Tc,"Nb, Tc",2,0.0,Orthorhombic,69,Fmmm,0.0,True,True,0.14142135623730942
mp-1220401,Nb4Pd,"Nb, Pd",2,0.021967692000000483,Orthorhombic,69,Fmmm,0.0,True,True,0.24000000000000005
mp-1223979,In2Bi,"Bi, In",2,0.07925593611111026,Orthorhombic,69,Fmmm,0.0,True,True,0.11313708498984759
mp-569678,Rh4Pb5,"Pb, Rh",2,0.002735981111115393,Orthorhombic,69,Fmmm,0.0,False,True,0.024845199749997795
mp-1221635,MnFe4,"Fe, Mn",2,0.035551132413793596,Orthorhombic,69,Fmmm,0.0,True,True,0.11200000000000002
mp-1219490,ReW2,"Re, W",2,0.06467894833333787,Orthorhombic,69,Fmmm,0.0,True,True,0.21684607956387456
mp-1224941,FeMo2,"Fe, Mo",2,0.06617449256410346,Orthorhombic,69,Fmmm,0.0,True,True,0.1555634918610405
mp-1220678,Nb2Pd,"Nb, Pd",2,0.0,Orthorhombic,69,Fmmm,0.0,True,True,0.28284271247461906
mp-1219494,ReW4,"Re, W",2,0.04740255500000501,Orthorhombic,69,Fmmm,0.0,True,True,0.184
mp-1216329,VFe4,"Fe, V",2,0.058178643999999835,Orthorhombic,69,Fmmm,0.0,True,True,0.08000000000000007
mp-1220441,Nb4Rh,"Nb, Rh",2,0.08011662799999897,Orthorhombic,69,Fmmm,0.0,True,True,0.2719999999999999
mp-1228952,AlFe4,"Al, Fe",2,0.09630704400000134,Orthorhombic,69,Fmmm,0.0,True,True,0.088
mp-1228006,AlV2,"Al, V",2,0.025035380833333676,Orthorhombic,69,Fmmm,0.0,True,True,0.009428090415820538
mp-1226757,CdHg2,"Cd, Hg",2,0.047214349999997296,Orthorhombic,69,Fmmm,0.0,True,True,0.14613540144521986
mp-1226243,Cr4Ni,"Cr, Ni",2,0.09597814100000157,Orthorhombic,69,Fmmm,0.0,True,True,0.1
mp-1217117,Ti4V,"Ti, V",2,0.09324100733333296,Orthorhombic,69,Fmmm,0.0,True,True,0.03599999999999994
mp-31311,Ga9Ir2,"Ga, Ir",2,0.0,Monoclinic,7,Pc,0.0,False,True,0.1504208970887747
mp-31312,Ga9Rh2,"Ga, Rh",2,0.0,Monoclinic,7,Pc,0.0,False,True,0.18127646572236936
mp-20887,VSn2,"Sn, V",2,0.02662400944444343,Orthorhombic,70,Fddd,0.0,False,True,0.1555634918610405
mp-755328,ZrSn2,"Sn, Zr",2,0.0,Orthorhombic,70,Fddd,0.0,False,True,0.2969848480983499
mp-20296,In2Co,"Co, In",2,0.09073555722221727,Orthorhombic,70,Fddd,0.0,False,True,0.047140452079103105
mp-2481,Mg2Cu,"Cu, Mg",2,0.0,Orthorhombic,70,Fddd,0.0,False,True,0.2781286672667086
mp-10910,Al2Ru,"Al, Ru",2,0.0,Orthorhombic,70,Fddd,0.08639999999999937,False,False,0.2781286672667087
mp-567982,TaSn2,"Sn, Ta",2,0.04603517277777769,Orthorhombic,70,Fddd,0.0,False,True,0.21684607956387456
mp-22812,In2Ir,"In, Ir",2,0.0,Orthorhombic,70,Fddd,0.0,False,True,0.19798989873223338
mp-1072429,Ga2Ru,"Ga, Ru",2,0.0,Orthorhombic,70,Fddd,0.12680000000000025,False,False,0.18384776310850243
mp-570875,Ga2Os,"Ga, Os",2,0.0739168072222256,Orthorhombic,70,Fddd,0.6654999999999998,False,False,0.18384776310850243
mp-581527,Bi14Rh3,"Bi, Rh",2,0.015030314852945814,Orthorhombic,70,Fddd,0.0,False,True,0.0991172106815319
mp-1046,NbSn2,"Nb, Sn",2,0.0,Orthorhombic,70,Fddd,0.0,False,True,0.16970562748477133
mp-30851,Ti3Pt5,"Pt, Ti",2,0.0,Orthorhombic,72,Ibam,0.0,False,True,0.35825095952418595
mp-1770,Mg5Ga2,"Ga, Mg",2,0.0,Orthorhombic,72,Ibam,0.0,False,True,0.22587697572631282
mp-672313,Sc6Pb5,"Pb, Sc",2,0.0,Orthorhombic,72,Ibam,0.0,False,True,0.4829917098000101
mp-1209024,Sc6Sn5,"Sc, Sn",2,0.0,Orthorhombic,72,Ibam,0.0,True,True,0.2987577586391814
mp-22570,Mg5In2,"In, Mg",2,0.02176974253968078,Orthorhombic,72,Ibam,0.0,False,True,0.21232435718273404
mp-570849,Mg5Tl2,"Mg, Tl",2,0.008870449642853329,Orthorhombic,72,Ibam,0.0,False,True,0.14004372495031397
mp-865014,Mg2Cu,"Cu, Mg",2,0.004629277499999418,Orthorhombic,72,Ibam,0.0,True,True,0.2781286672667086
mp-1207512,Zn3Au5,"Au, Zn",2,0.005518110781252972,Orthorhombic,72,Ibam,0.0,True,True,0.43086939726557516
mp-678,Mg54Ag17,"Ag, Mg",2,0.0005416258450710032,Orthorhombic,71,Immm,0.0,False,True,0.26457858007540086
mp-11514,NbPt2,"Nb, Pt",2,0.0,Orthorhombic,71,Immm,0.0,False,True,0.3205550741379014