material_id,formula,elements,num_elements,energy_above_hull,crystal_system,spacegroup_number,spacegroup_symbol,band_gap,theoretical,is_metal,electronegativity_difference
mp-11549,VPd2,"Pd, V",2,0.0,Orthorhombic,71,Immm,0.0,False,True,0.26870057685088816
mp-1103536,Y3Zn11,"Y, Zn",2,0.0,Orthorhombic,71,Immm,0.0,False,True,0.17644013842938228
mp-11028,K3Hg11,"Hg, K",2,0.008192996964282884,Orthorhombic,71,Immm,0.0,False,True,0.484184565922491
mp-1219283,SrCd6,"Cd, Sr",2,0.0,Orthorhombic,71,Immm,0.0,True,True,0.25894605852279307
mp-1017983,TiMo3,"Mo, Ti",2,0.0,Orthorhombic,71,Immm,0.0,True,True,0.26846787517317605
mp-8700,K2Au3,"Au, K",2,0.0,Orthorhombic,71,Immm,0.0,False,True,0.8426244715174133
mp-30835,TaPd2,"Pd, Ta",2,0.0,Orthorhombic,71,Immm,0.0,False,True,0.32998316455372223
mp-12108,VPt2,"Pt, V",2,0.0,Orthorhombic,71,Immm,0.0,False,True,0.30641293851417056
mp-1192223,Nb6Sn5,"Nb, Sn",2,0.0,Orthorhombic,71,Immm,0.0,False,True,0.17925465518350883
mp-1018129,Pt2W,"Pt, W",2,0.0,Orthorhombic,71,Immm,0.0,False,True,0.03771236166328257
mp-568232,Ti6Sn5,"Sn, Ti",2,0.02521766727272734,Orthorhombic,71,Immm,0.0,False,True,0.209130431047427
mp-1018151,NbPd2,"Nb, Pd",2,0.0,Orthorhombic,71,Immm,0.0,False,True,0.28284271247461906
mp-16505,La3Al11,"Al, La",2,0.0,Orthorhombic,71,Immm,0.0,False,True,0.2092662106953139
mp-11531,VNi2,"Ni, V",2,0.0,Orthorhombic,71,Immm,0.0,False,True,0.13199326582148888
mp-11814,Rb2Au3,"Au, Rb",2,0.0,Orthorhombic,71,Immm,0.0,False,True,0.8426244715174133
mp-1206704,MoPd2,"Mo, Pd",2,0.0,Orthorhombic,71,Immm,0.0,True,True,0.018856180831641284
mp-1219746,ScZn6,"Sc, Zn",2,0.0,Orthorhombic,71,Immm,0.0,True,True,0.10147886077244588
mp-1229298,CaCd6,"Ca, Cd",2,0.0,Orthorhombic,71,Immm,0.0,True,True,0.24144970321719894
mp-952,MoPt2,"Mo, Pt",2,0.0,Orthorhombic,71,Immm,0.0,False,True,0.05656854249492364
mp-1061861,TiPd2,"Pd, Ti",2,0.0,Orthorhombic,71,Immm,0.0,True,True,0.311126983722081
mp-567822,Sr3In11,"In, Sr",2,0.0,Orthorhombic,71,Immm,0.0,False,True,0.3405704997590403
mp-1094288,Sr2Mg,"Mg, Sr",2,0.018617934999999752,Orthorhombic,71,Immm,0.0,True,True,0.16970562748477144
mp-569529,Ba2Bi3,"Ba, Bi",2,0.0,Orthorhombic,71,Immm,0.0,False,True,0.5535846818689982
mp-1207654,Zr54Os17,"Os, Zr",2,0.00939077934859256,Orthorhombic,71,Immm,0.0,True,True,0.37126349139612713
mp-2479851,Mg3Cu,"Cu, Mg",2,0.06791039062500026,Orthorhombic,71,Immm,0.0,True,True,0.25547749411640935
mp-1178808,VIr,"Ir, V",2,0.016097583125002757,Orthorhombic,71,Immm,0.0,True,True,0.28500000000000014
mp-12611,Ca3Ga8,"Ca, Ga",2,0.0011477618181832128,Orthorhombic,71,Immm,0.0,False,True,0.3607430348462499
mp-568048,Hf54Os17,"Hf, Os",2,0.020451442816899146,Orthorhombic,71,Immm,0.0,False,True,0.3840656807546143
mp-784630,Ni2Mo,"Mo, Ni",2,0.007272286666665906,Orthorhombic,71,Immm,0.0,True,True,0.11785113019775802
mp-567258,LaZn2,"La, Zn",2,0.0,Orthorhombic,74,Imma,0.0,False,True,0.25927248643506734
mp-30435,BaZn2,"Ba, Zn",2,0.0,Orthorhombic,74,Imma,0.0,False,True,0.35826743580118403
mp-9827,RbHg2,"Hg, Rb",2,0.0,Orthorhombic,74,Imma,0.0,False,True,0.5562573345334174
mp-13270,CaAg2,"Ag, Ca",2,0.0,Orthorhombic,74,Imma,0.0,False,True,0.4384062043356594
mp-582681,CuAu,"Au, Cu",2,0.009104014499999646,Orthorhombic,74,Imma,0.0,False,True,0.32000000000000006
mp-434,SrAu2,"Au, Sr",2,0.0,Orthorhombic,74,Imma,0.0,False,True,0.7495331880577404
mp-11412,ScGa2,"Ga, Sc",2,0.0,Orthorhombic,74,Imma,0.0,False,True,0.21213203435596423
mp-1725,CaZn2,"Ca, Zn",2,0.0,Orthorhombic,74,Imma,0.0,False,True,0.30641293851417056
mp-1444,CaCd2,"Ca, Cd",2,0.0,Orthorhombic,74,Imma,0.0,False,True,0.3252691193458118
mp-1101884,CaNi5,"Ca, Ni",2,0.002942592916666875,Orthorhombic,74,Imma,0.0,True,True,0.33913697658746805
mp-22141,BaIn2,"Ba, In",2,0.0,Orthorhombic,74,Imma,0.0,False,True,0.4195500235040182
mp-2698,YCu2,"Cu, Y",2,0.0,Orthorhombic,74,Imma,0.0,False,True,0.3205550741379015
mp-1072087,LaAu2,"Au, La",2,0.0,Orthorhombic,74,Imma,0.0,False,True,0.6788225099390857
mp-574379,CsHg2,"Cs, Hg",2,0.0,Orthorhombic,74,Imma,0.0,False,True,0.5703994701571483
mp-569426,SrZn2,"Sr, Zn",2,0.0,Orthorhombic,74,Imma,0.0,False,True,0.3299831645537222
mp-11266,BaCd2,"Ba, Cd",2,0.0,Orthorhombic,74,Imma,0.0,False,True,0.3771236166328253
mp-443,CaAu2,"Au, Ca",2,0.0,Orthorhombic,74,Imma,0.0,False,True,0.7259629620181889
mp-677,SrCd2,"Cd, Sr",2,0.0,Orthorhombic,74,Imma,0.0,False,True,0.34883934538536343
mp-30717,KHg2,"Hg, K",2,0.0,Orthorhombic,74,Imma,0.0,False,True,0.5562573345334174
mp-30356,SrAg2,"Ag, Sr",2,0.0,Orthorhombic,74,Imma,0.0,False,True,0.461976430375211
mp-22318,SrAl2,"Al, Sr",2,0.0,Orthorhombic,74,Imma,0.0,False,True,0.311126983722081
mp-1077322,BaAg2,"Ag, Ba",2,0.0031732133333344237,Orthorhombic,74,Imma,0.0,False,True,0.4902607016226729
mp-22282,LaIn2,"In, La",2,0.0,Orthorhombic,74,Imma,0.0,False,True,0.3205550741379015
mp-1071274,HfV2,"Hf, V",2,0.03422608833333385,Orthorhombic,74,Imma,0.0,True,True,0.15556349186104038
mp-568526,SrHg2,"Hg, Sr",2,0.0,Orthorhombic,74,Imma,0.0,False,True,0.4949747468305833
mp-1025059,LaAg2,"Ag, La",2,0.0,Orthorhombic,74,Imma,0.0,False,True,0.39126575225655624
mp-1185380,LiMg,"Li, Mg",2,0.0,Orthorhombic,74,Imma,0.0,True,True,0.16500000000000004
mp-21691,La5Pb4,"La, Pb",2,0.0,Orthorhombic,62,Pnma,0.0,False,True,0.6111919138499425
mp-1200767,Sc3Ga5,"Ga, Sc",2,0.0,Orthorhombic,62,Pnma,0.0,False,True,0.21785531322416718
mp-30355,SrAg,"Ag, Sr",2,0.0016014802499988434,Orthorhombic,62,Pnma,0.0,False,True,0.49
mp-12724,SrZn,"Sr, Zn",2,0.0,Orthorhombic,62,Pnma,0.0,False,True,0.35
mp-27162,Sc3Co,"Co, Sc",2,0.026186492499999048,Orthorhombic,62,Pnma,0.0,False,True,0.22516660498395397
mp-636498,In3Ir,"In, Ir",2,0.0,Orthorhombic,62,Pnma,0.0,False,True,0.1818653347947322
mp-1188441,TiCu4,"Cu, Ti",2,0.0,Orthorhombic,62,Pnma,0.0,False,True,0.14399999999999996
mp-1025448,YPt,"Pt, Y",2,0.0,Orthorhombic,62,Pnma,0.0,False,True,0.5299999999999999
mp-1189101,La3Os,"La, Os",2,0.0,Orthorhombic,62,Pnma,0.0,False,True,0.47631397208144133
mp-1203497,Sr5Pt4,"Pt, Sr",2,0.004042353055552894,Orthorhombic,62,Pnma,0.0376000000000003,False,False,0.6608823133499379
mp-21246,Ba2Pb,"Ba, Pb",2,0.0,Orthorhombic,62,Pnma,0.028799999999999937,False,False,0.6788225099390857
mp-1188757,Y3Os,"Os, Y",2,0.0,Orthorhombic,62,Pnma,0.0,False,True,0.42435244785437504
mp-30757,La5Sn4,"La, Sn",2,0.0,Orthorhombic,62,Pnma,0.0,False,True,0.42733743569995974
mp-1102131,Sr2Pd,"Pd, Sr",2,0.0,Orthorhombic,62,Pnma,0.0,False,True,0.5892556509887897
mp-605663,AlPd5,"Al, Pd",2,0.0,Orthorhombic,62,Pnma,0.0,False,True,0.21988001778747934
mp-1851,SnPd2,"Pd, Sn",2,0.0,Orthorhombic,62,Pnma,0.0,False,True,0.1131370849898477
mp-1207777,Y3Pd,"Pd, Y",2,0.0,Orthorhombic,62,Pnma,0.0,False,True,0.42435244785437504
mp-1101944,TlPd2,"Pd, Tl",2,0.007179688214286273,Orthorhombic,62,Pnma,0.0,False,True,0.2734146220587984
mp-11840,BaAg,"Ag, Ba",2,0.0,Orthorhombic,62,Pnma,0.0,False,True,0.52
mp-23179,NiBi3,"Bi, Ni",2,0.0,Orthorhombic,62,Pnma,0.0,False,True,0.04763139720814417
mp-1193593,BaHg6,"Ba, Hg",2,0.0,Orthorhombic,62,Pnma,0.0,False,True,0.38841908778418965
mp-1102657,Y2Pt,"Pt, Y",2,0.0,Orthorhombic,62,Pnma,0.0,False,True,0.4996887920384935
mp-1981,Ba2Sn,"Ba, Sn",2,0.0,Orthorhombic,62,Pnma,0.0,False,True,0.5044028372464039
mp-1080443,YCu,"Cu, Y",2,0.0,Orthorhombic,62,Pnma,0.0,True,True,0.33999999999999997
mp-12741,MgPd2,"Mg, Pd",2,0.0,Orthorhombic,62,Pnma,0.0,False,True,0.4195500235040182
mp-1203494,Y5Sn4,"Sn, Y",2,0.0,Orthorhombic,62,Pnma,0.0,False,True,0.3677089562999654
mp-12175,Y5Pt4,"Pt, Y",2,0.00771099972222089,Orthorhombic,62,Pnma,0.0,False,True,0.5267182346999504
mp-1105761,Ca3Hg,"Ca, Hg",2,0.002973187500000307,Orthorhombic,62,Pnma,0.0,False,True,0.4330127018922193
mp-1102915,Mg2Pb,"Mg, Pb",2,0.06454494999999838,Orthorhombic,62,Pnma,0.0,False,True,0.4808326112068523
mp-17813,ZrAu4,"Au, Zr",2,0.0,Orthorhombic,62,Pnma,0.0,False,True,0.48400000000000004
mp-1103139,Ca2Hg,"Ca, Hg",2,0.0,Orthorhombic,62,Pnma,0.0,False,True,0.4714045207910317
mp-978,Sr2Sn,"Sn, Sr",2,0.0,Orthorhombic,62,Pnma,0.15239999999999965,False,False,0.476118565998942
mp-1105844,Sr3Hg,"Hg, Sr",2,0.0035957093749976465,Orthorhombic,62,Pnma,0.0,True,True,0.4546633369868303
mp-669720,Ni3Sn2,"Ni, Sn",2,0.0,Orthorhombic,62,Pnma,0.0,False,True,0.024494897427831803
mp-1190274,Co3Sn2,"Co, Sn",2,0.07398159866666632,Orthorhombic,62,Pnma,0.0,False,True,0.03919183588453088
mp-30884,YZn3,"Y, Zn",2,0.0,Orthorhombic,62,Pnma,0.0,False,True,0.18619546181365426
mp-570356,Ca5Ir,"Ca, Ir",2,0.0,Orthorhombic,62,Pnma,0.0,False,True,0.44721359549995804
mp-585949,CaCu,"Ca, Cu",2,0.0,Orthorhombic,62,Pnma,0.0,False,True,0.44999999999999996
mp-1435,SrZn5,"Sr, Zn",2,0.0,Orthorhombic,62,Pnma,0.0,False,True,0.2608745973749754
mp-1207785,Y3Ir,"Ir, Y",2,0.0,Orthorhombic,62,Pnma,0.0,False,True,0.42435244785437504
mp-11250,Mg2Au,"Au, Mg",2,0.0,Orthorhombic,62,Pnma,0.0,False,True,0.5798275605729689
mp-1105598,Y3Co,"Co, Y",2,0.0,Orthorhombic,62,Pnma,0.0,False,True,0.28578838324886474
mp-1079984,BaAl,"Al, Ba",2,0.07773347349999948,Orthorhombic,62,Pnma,0.0,True,True,0.36000000000000004
mp-1869,GaPd2,"Ga, Pd",2,0.0,Orthorhombic,62,Pnma,0.0,False,True,0.1838477631085024
mp-569558,AlAu2,"Al, Au",2,0.0,Orthorhombic,62,Pnma,0.0,False,True,0.4384062043356594
mp-1188506,La3Ir,"Ir, La",2,0.00018081625000299084,Orthorhombic,62,Pnma,0.0,False,True,0.47631397208144133
mp-1078864,KGa,"Ga, K",2,0.076792982583334,Orthorhombic,62,Pnma,0.0,False,True,0.49500000000000005
mp-1364,YNi,"Ni, Y",2,0.0,Orthorhombic,62,Pnma,0.0,False,True,0.345
mp-1103252,ZnPd2,"Pd, Zn",2,0.0,Orthorhombic,62,Pnma,0.0,False,True,0.25927248643506756
mp-979911,Y2Au,"Au, Y",2,0.0,Orthorhombic,62,Pnma,0.0,False,True,0.6222539674441618
mp-1103212,TaRh2,"Rh, Ta",2,0.0,Orthorhombic,62,Pnma,0.0,False,True,0.36769552621700463
mp-1213259,Mn8Sn5,"Mn, Sn",2,0.09009154281167042,Orthorhombic,62,Pnma,0.0,True,True,0.19946674471831313
mp-1193208,KHg6,"Hg, K",2,0.0,Orthorhombic,62,Pnma,0.0,False,True,0.4129139852120215
mp-669917,ZrRh,"Rh, Zr",2,0.0,Orthorhombic,62,Pnma,0.0,False,True,0.47499999999999987
mp-1195821,Zr3Cu8,"Cu, Zr",2,0.0,Orthorhombic,62,Pnma,0.0,False,True,0.2538562097066202
mp-2369,SnPd,"Pd, Sn",2,0.0,Orthorhombic,62,Pnma,0.0,False,True,0.1200000000000001
mp-1178792,Y5Bi3,"Bi, Y",2,0.007485151874998763,Orthorhombic,62,Pnma,0.0,True,True,0.3872983346207417
mp-1103395,La2Au,"Au, La",2,0.0,Orthorhombic,62,Pnma,0.0,False,True,0.6788225099390857
mp-1078920,LaCu,"Cu, La",2,0.0,Orthorhombic,62,Pnma,0.0,False,True,0.3999999999999999
mp-1209057,Sc2Au,"Au, Sc",2,0.0,Orthorhombic,62,Pnma,0.0,True,True,0.5562573345334173
mp-31394,Ca7Sn6,"Ca, Sn",2,0.011303027045454161,Orthorhombic,62,Pnma,0.0,False,True,0.47857777465165735
mp-1203353,Sr5Pb4,"Pb, Sr",2,0.03281491694444583,Orthorhombic,62,Pnma,0.0,False,True,0.6857275130999356
mp-1197242,Sr5Bi3,"Bi, Sr",2,0.0,Orthorhombic,62,Pnma,0.0,False,True,0.518011522555242
mp-1214063,Ca5Rh,"Ca, Rh",2,0.0,Orthorhombic,62,Pnma,0.0,True,True,0.47702783519995506
mp-1106061,Ca3Pd,"Ca, Pd",2,0.0027539912499996433,Orthorhombic,62,Pnma,0.0,False,True,0.5196152422706632
mp-636256,LaCu6,"Cu, La",2,0.0004356725892868951,Orthorhombic,62,Pnma,0.0,False,True,0.279941684889506
mp-1207780,Y3Rh,"Rh, Y",2,0.0,Orthorhombic,62,Pnma,0.0,False,True,0.4589934640057524
mp-12614,Ca2Cu,"Ca, Cu",2,0.0,Orthorhombic,62,Pnma,0.0,False,True,0.42426406871192845
mp-11230,Y2Al,"Al, Y",2,0.0,Orthorhombic,62,Pnma,0.0,False,True,0.18384776310850243
mp-1102640,MnPd2,"Mn, Pd",2,0.0,Orthorhombic,62,Pnma,0.0,False,True,0.3064129385141706
mp-1189592,La3Ru,"La, Ru",2,0.00323984125000365,Orthorhombic,62,Pnma,0.0,False,True,0.47631397208144133
mp-11550,Sc2Pt,"Pt, Sc",2,0.0,Orthorhombic,62,Pnma,0.0,False,True,0.433692159127749
mp-1105522,CoBi3,"Bi, Co",2,0.016537787499999013,Orthorhombic,62,Pnma,0.0,False,True,0.06062177826491076
mp-1202486,La7Ru3,"La, Ru",2,0.0,Orthorhombic,62,Pnma,0.04459999999999997,False,False,0.5040833264451424
mp-2824,AlPd2,"Al, Pd",2,0.0,Orthorhombic,62,Pnma,0.0,False,True,0.2781286672667087
mp-1203966,SrHg8,"Hg, Sr",2,0.028153434920633047,Orthorhombic,62,Pnma,0.0,False,True,0.3299831645537222
mp-1105633,Y3Ni,"Ni, Y",2,0.0,Orthorhombic,62,Pnma,0.0,False,True,0.2987787643056313
mp-1025399,LaAu,"Au, La",2,0.002857545000004791,Orthorhombic,62,Pnma,0.0,False,True,0.72
mp-1103028,Ba2Pd,"Ba, Pd",2,0.001974802499999484,Orthorhombic,62,Pnma,0.0,False,True,0.6175399222362516
mp-640095,La3Co,"Co, La",2,0.0,Orthorhombic,62,Pnma,0.0,False,True,0.337749907475931
mp-600428,Mn3Sn2,"Mn, Sn",2,0.07212195174137648,Orthorhombic,62,Pnma,0.0,False,True,0.2008581589082206
mp-16526,AlPt2,"Al, Pt",2,0.0022047591666662925,Orthorhombic,62,Pnma,0.0,False,True,0.31584102892999105
mp-22646,InPd2,"In, Pd",2,0.0,Orthorhombic,62,Pnma,0.0,False,True,0.19798989873223338
mp-636334,SnRh2,"Rh, Sn",2,0.0,Orthorhombic,62,Pnma,0.0,False,True,0.15084944665313005
mp-1199503,Y3In5,"In, Y",2,0.06455999499999976,Orthorhombic,62,Pnma,0.0,False,True,0.2711088342345192
mp-30843,Sr7Pt3,"Pt, Sr",2,0.0,Orthorhombic,62,Pnma,0.0,False,True,0.6094825674291267
mp-30379,GaAu,"Au, Ga",2,0.0,Orthorhombic,62,Pnma,0.0,False,True,0.365
mp-607138,Sc5Bi3,"Bi, Sc",2,0.0,Orthorhombic,62,Pnma,0.0,False,True,0.31952112606211186
mp-622209,Al3Ni,"Al, Ni",2,0.0,Orthorhombic,62,Pnma,0.0,False,True,0.12990381056766573
mp-581990,Bi3Rh,"Bi, Rh",2,0.018761169791666532,Orthorhombic,62,Pnma,0.0,False,True,0.11258330249197693
mp-30719,Mg2Hg,"Hg, Mg",2,0.002498592500000285,Orthorhombic,62,Pnma,0.0,False,True,0.3252691193458118
mp-624187,Y5Bi3,"Bi, Y",2,0.0,Orthorhombic,62,Pnma,0.0,False,True,0.3872983346207417
mp-570775,BaAu,"Au, Ba",2,0.0,Orthorhombic,62,Pnma,0.0,False,True,0.8250000000000001
mp-20669,Ca2In,"Ca, In",2,0.0003651354999991696,Orthorhombic,62,Pnma,0.0,False,True,0.36769552621700474
mp-7343,Y3Pt,"Pt, Y",2,0.0,Orthorhombic,62,Pnma,0.0,False,True,0.4589934640057524
mp-1102396,Ba2In,"Ba, In",2,0.0007876921666705172,Orthorhombic,62,Pnma,0.0,False,True,0.4195500235040182
mp-568716,SrAg,"Ag, Sr",2,0.0,Orthorhombic,62,Pnma,0.0,False,True,0.49
mp-1189497,La3Ni,"La, Ni",2,0.0036061577083312812,Orthorhombic,62,Pnma,0.0,False,True,0.35074028853269756
mp-1189701,SrHg3,"Hg, Sr",2,0.031222650624999293,Orthorhombic,62,Pnma,0.0,False,True,0.4546633369868303
mp-7353,Hf3Cu8,"Cu, Hf",2,0.0,Orthorhombic,62,Pnma,0.0,False,True,0.2672170628490739
mp-27145,Ca5Bi3,"Bi, Ca",2,0.0,Orthorhombic,62,Pnma,0.0,False,True,0.4938053766414457
mp-1210680,MgPb2,"Mg, Pb",2,0.03223341583333372,Orthorhombic,62,Pnma,0.0,True,True,0.4808326112068523
mp-30478,Ca2Pb,"Ca, Pb",2,0.0,Orthorhombic,62,Pnma,0.0,False,True,0.6269680126520721
mp-1197877,La5Rh4,"La, Rh",2,0.018963846666667727,Orthorhombic,62,Pnma,0.0,False,True,0.5863467140999448
mp-22735,Ca2Sn,"Ca, Sn",2,0.0,Orthorhombic,62,Pnma,0.05590000000000028,False,False,0.4525483399593904
mp-1207781,Y3Ru,"Ru, Y",2,0.0,Orthorhombic,62,Pnma,0.0,False,True,0.42435244785437504
mp-30828,Sr2Pb,"Pb, Sr",2,0.0,Orthorhombic,62,Pnma,0.0,False,True,0.6505382386916237
mp-1102090,Ga2Au,"Au, Ga",2,0.09809407083333,Orthorhombic,62,Pnma,0.0,True,True,0.34412530017745313
mp-405,Ga2Pd5,"Ga, Pd",2,0.0,Orthorhombic,62,Pnma,0.0,False,True,0.17618404106652405
mp-30366,Ca3Au,"Au, Ca",2,0.0,Orthorhombic,62,Pnma,0.0,False,True,0.6668395609140177
mp-30411,Mn9Au31,"Au, Mn",2,0.023309926125001823,Tetragonal,83,P4/m,0.0,False,True,0.4134065039401292
mp-30673,Ti2Ga3,"Ga, Ti",2,0.0,Tetragonal,83,P4/m,0.0,False,True,0.13227244611029162
mp-1207416,Zr3Bi,"Bi, Zr",2,0.0,Tetragonal,82,I-4,0.0,True,True,0.2987787643056313
mp-1178773,YFe2,"Fe, Y",2,0.0020466146666660023,Tetragonal,82,I-4,0.0,False,True,0.28755675768252936
mp-30594,Cu4Pd,"Cu, Pd",2,0.015894708357143017,Tetragonal,84,P4_2/m,0.0,False,True,0.12000000000000012
mp-1039430,CaMg,"Ca, Mg",2,0.06642301958333285,Monoclinic,8,Cm,0.0,True,True,0.15500000000000003
mp-1215884,Zn9Fe4,"Fe, Zn",2,0.08421599923076828,Monoclinic,8,Cm,0.0,True,True,0.08307692307692315
mp-1094182,LaMg,"La, Mg",2,0.09601433750000288,Monoclinic,8,Cm,0.0,True,True,0.10499999999999998
mp-976244,LiMg,"Li, Mg",2,0.006081540833333232,Monoclinic,8,Cm,0.0,True,True,0.16500000000000004
mp-1222769,Li2Ga7,"Ga, Li",2,0.0,Monoclinic,8,Cm,0.15870000000000006,True,False,0.3450639590024857
mp-1094609,LiMg5,"Li, Mg",2,0.012276034166666783,Monoclinic,8,Cm,0.0,True,True,0.12298373876248846
mp-1216435,Y11Mg76,"Mg, Y",2,0.030149455229884214,Monoclinic,8,Cm,0.0,True,True,0.029910687506484773
mp-1185831,Mg5Pb,"Mg, Pb",2,0.04990344583333339,Monoclinic,8,Cm,0.0,True,True,0.38013155617496425
mp-1094246,MgSn5,"Mg, Sn",2,0.07800068291666751,Monoclinic,8,Cm,0.0,True,True,0.24224069756247718
mp-1094435,MgZn,"Mg, Zn",2,0.09516835563333337,Monoclinic,8,Cm,0.0,True,True,0.16999999999999993
mp-30180,Al4Mo,"Al, Mo",2,0.022488266833331494,Monoclinic,8,Cm,0.0,False,True,0.22000000000000003
mp-1220533,NiBi,"Bi, Ni",2,0.008430603749999932,Monoclinic,8,Cm,0.0,True,True,0.05500000000000005
mp-1228763,Al8V5,"Al, V",2,0.06294869538461612,Monoclinic,8,Cm,0.0,True,True,0.0097300851082103
mp-1094455,Mg2Zn,"Mg, Zn",2,0.08861071320000025,Monoclinic,8,Cm,0.0,True,True,0.1602775370689507
mp-1219596,Rb5Bi4,"Bi, Rb",2,0.0007919716319468861,Monoclinic,8,Cm,0.0,True,True,0.5962847939999439
mp-1216505,V6Ga7,"Ga, V",2,0.04085129538461629,Monoclinic,8,Cm,0.0,True,True,0.08973333274718584
mp-1215779,Zn10Pd3,"Pd, Zn",2,0.007245746713286483,Monoclinic,8,Cm,0.0,True,True,0.23172877432910885
mp-1224231,In9Ag17,"Ag, In",2,0.0074985988804989745,Monoclinic,8,Cm,0.0,True,True,0.07136144352030561
mp-1094704,Mg5Cd,"Cd, Mg",2,0.040687793333332944,Monoclinic,8,Cm,0.0,True,True,0.14161763857498663
mp-1038866,CaMg5,"Ca, Mg",2,0.09011531833333275,Monoclinic,8,Cm,0.0,True,True,0.11553017883748914
mp-1100190,LiMg,"Li, Mg",2,0.03073207,Monoclinic,8,Cm,0.0,True,True,0.16500000000000004
mp-1094415,Y5Mg,"Mg, Y",2,0.06196636000000133,Monoclinic,8,Cm,0.0,True,True,0.033541019662496875
mp-1094911,Mg2Cd,"Cd, Mg",2,0.05338764861111245,Monoclinic,8,Cm,0.0,True,True,0.179133717900592
mp-1094250,MgSn,"Mg, Sn",2,0.09638460208333255,Monoclinic,8,Cm,0.0,True,True,0.32499999999999996
mp-1100191,YMg5,"Mg, Y",2,0.07855829166666561,Monoclinic,8,Cm,0.0,True,True,0.033541019662496875
mp-1185827,Mg5In,"In, Mg",2,0.04687291999999976,Monoclinic,8,Cm,0.0,True,True,0.1751586582374835
mp-1185918,MgIn5,"In, Mg",2,0.05685573814814937,Monoclinic,8,Cm,0.0,True,True,0.1751586582374835
mp-977273,MgRh5,"Mg, Rh",2,0.05350583333333159,Monoclinic,8,Cm,0.0,True,True,0.3614976563624659
mp-1080022,ZrCu,"Cu, Zr",2,0.02250555298077117,Monoclinic,8,Cm,0.0,False,True,0.2849999999999999
mp-1094700,Mg18Al11,"Al, Mg",2,0.01190381958333342,Monoclinic,8,Cm,0.0,True,True,0.145564627029003
mp-1039471,MgCd,"Cd, Mg",2,0.04389307916666607,Monoclinic,8,Cm,0.0,True,True,0.18999999999999995
mp-1104047,Al4Tc,"Al, Tc",2,0.0,Monoclinic,8,Cm,0.0,False,True,0.11599999999999992
mp-1094212,MgSn2,"Mg, Sn",2,0.08467542583333332,Monoclinic,8,Cm,0.0,True,True,0.30641293851417056
mp-1094612,Mg5Ga,"Ga, Mg",2,0.05815321499999948,Monoclinic,8,Cm,0.0,True,True,0.18633899812498247
mp-1094271,SrMg,"Mg, Sr",2,0.0969103108333329,Monoclinic,8,Cm,0.0,True,True,0.18000000000000005
mp-1094650,MgGa,"Ga, Mg",2,0.04222416500000037,Monoclinic,8,Cm,0.0,True,True,0.25
mp-977056,MgPt5,"Mg, Pt",2,0.06321236416666931,Monoclinic,8,Cm,0.0,True,True,0.3614976563624659
mp-982380,Li2Mg,"Li, Mg",2,0.00779538166666649,Monoclinic,8,Cm,0.0,True,True,0.1555634918610405
mp-1184798,InPb,"In, Pb",2,0.02718960000000692,Monoclinic,8,Cm,0.0,True,True,0.275
mp-1094372,Sr5Mg,"Mg, Sr",2,0.05603348083333315,Monoclinic,8,Cm,0.0,True,True,0.13416407864998742
mp-1094604,LiMg2,"Li, Mg",2,0.030751566666666896,Monoclinic,8,Cm,0.0,True,True,0.1555634918610405
mp-976944,Li5Mg,"Li, Mg",2,0.002581708055555687,Monoclinic,8,Cm,0.0,True,True,0.12298373876248846
mp-1039222,MgCd,"Cd, Mg",2,0.04685380083333368,Monoclinic,8,Cm,0.0,True,True,0.18999999999999995
mp-1185962,MgPb5,"Mg, Pb",2,0.03928720833333532,Monoclinic,8,Cm,0.0,True,True,0.38013155617496425