material_id,formula,elements,num_elements,energy_above_hull,crystal_system,spacegroup_number,spacegroup_symbol,band_gap,theoretical,is_metal,electronegativity_difference
mp-1223655,IrOs,"Ir, Os",2,0.038359514999996236,Hexagonal,187,P-6m2,0.0,True,True,0.0
mp-1038869,MgCd3,"Cd, Mg",2,0.05503307791666501,Hexagonal,187,P-6m2,0.0,True,True,0.1645448267190433
mp-1016327,Mg7Bi,"Bi, Mg",2,0.055831655312498896,Hexagonal,187,P-6m2,0.0,True,True,0.23481042885698242
mp-1185594,Mg149In,"In, Mg",2,0.002012623466666641,Hexagonal,187,P-6m2,0.5289000000000001,True,False,0.0382472075959656
mp-1094588,LiMg5,"Li, Mg",2,0.01699987916666723,Hexagonal,187,P-6m2,0.0,True,True,0.12298373876248846
mp-1038829,MgCd,"Cd, Mg",2,0.05530514750000037,Hexagonal,187,P-6m2,0.0,True,True,0.18999999999999995
mp-1184337,BaMg149,"Ba, Mg",2,0.013130278050000443,Hexagonal,187,P-6m2,0.36439999999999984,True,False,0.03417835572405438
mp-1023622,Mg15Ni,"Mg, Ni",2,0.07608314989583365,Hexagonal,187,P-6m2,0.0,True,True,0.1452368754827781
mp-1219503,RuRh,"Rh, Ru",2,0.03330715916666804,Hexagonal,187,P-6m2,0.0,True,True,0.039999999999999813
mp-1215200,ZrTi,"Ti, Zr",2,0.079636073333333,Hexagonal,187,P-6m2,0.0,True,True,0.10499999999999998
mp-1185589,Mg149Nb,"Mg, Nb",2,0.013537042166666735,Hexagonal,187,P-6m2,0.1198999999999999,True,False,0.023599340857085163
mp-1185592,Mg149Fe,"Fe, Mg",2,0.015586644366666791,Hexagonal,187,P-6m2,0.055299999999999905,True,False,0.04231605946787684
mp-1185581,Mg149Cd,"Cd, Mg",2,0.002507678133333524,Hexagonal,187,P-6m2,0.0,True,True,0.030923274226525372
mp-1226933,Cd3Ag,"Ag, Cd",2,0.014126068749998666,Hexagonal,187,P-6m2,0.0,True,True,0.10392304845413264
mp-1039019,MgAl,"Al, Mg",2,0.06378801374999998,Hexagonal,187,P-6m2,0.0,True,True,0.15000000000000002
mp-1206819,ZnIr,"Ir, Zn",2,0.0,Hexagonal,187,P-6m2,0.0,True,True,0.27500000000000013
mp-1023478,HfMg15,"Hf, Mg",2,0.07120114031250013,Hexagonal,187,P-6m2,0.0,True,True,0.0024206145913796377
mp-1215497,Zn3Ag,"Ag, Zn",2,0.0002982437500005375,Hexagonal,187,P-6m2,0.0,True,True,0.12124355652982141
mp-1222405,LiCd3,"Cd, Li",2,0.0838535924999988,Hexagonal,187,P-6m2,0.0,True,True,0.3074390183434757
mp-1185627,Mg149Mn,"Mg, Mn",2,0.01815313318046008,Hexagonal,187,P-6m2,0.10019999999999962,True,False,0.019530488985173927
mp-1094438,Mg2Zn,"Mg, Zn",2,0.09016583653333354,Hexagonal,187,P-6m2,0.0,True,True,0.1602775370689507
mp-1186915,ReTc,"Re, Tc",2,0.0,Hexagonal,187,P-6m2,0.0,True,True,0.0
mp-1183669,CdIn,"Cd, In",2,0.05935290500000079,Hexagonal,187,P-6m2,0.0,True,True,0.04500000000000004
mp-1184449,CaMg149,"Ca, Mg",2,0.00543083720000026,Hexagonal,187,P-6m2,0.49990000000000023,True,False,0.025226881605849658
mp-1215201,ZrSc,"Sc, Zr",2,0.03597444416666562,Hexagonal,187,P-6m2,0.0,True,True,0.015000000000000013
mp-1217414,Tc3Pd,"Pd, Tc",2,0.09276237999999992,Hexagonal,187,P-6m2,0.0,True,True,0.1299038105676659
mp-1183222,AgPd,"Ag, Pd",2,0.0069558550000010655,Hexagonal,187,P-6m2,0.0,True,True,0.13500000000000012
mp-1186271,NaMg149,"Mg, Na",2,0.01084429876666615,Hexagonal,187,P-6m2,0.0,True,True,0.030923274226525382
mp-1094865,MgTi3,"Mg, Ti",2,0.09579122375000004,Hexagonal,187,P-6m2,0.0,True,True,0.09959292143521044
mp-1185591,Mg149Ag,"Ag, Mg",2,0.0041645374666670065,Hexagonal,187,P-6m2,0.5664000000000002,True,False,0.050453763211699296
mp-1185586,Mg149Be,"Be, Mg",2,0.011578638333333391,Hexagonal,187,P-6m2,0.5244,True,False,0.02115802973393842
mp-1039142,Ca3Mg,"Ca, Mg",2,0.07999515562499981,Hexagonal,187,P-6m2,0.0,True,True,0.13423393758658803
mp-1183227,AgAu,"Ag, Au",2,0.016448837500007585,Hexagonal,187,P-6m2,0.0,True,True,0.30500000000000005
mp-1224300,HfSc,"Hf, Sc",2,0.0441707190000038,Hexagonal,187,P-6m2,0.0,True,True,0.030000000000000027
mp-1184069,CuNi,"Cu, Ni",2,0.05968355999999986,Hexagonal,187,P-6m2,0.0,True,True,0.0050000000000000044
mp-1226422,Co3Rh,"Co, Rh",2,0.05114784499999914,Hexagonal,187,P-6m2,0.0,True,True,0.1732050807568877
mp-1185568,Mg149Pt,"Mg, Pt",2,0.008119863622222612,Hexagonal,187,P-6m2,0.017100000000000115,True,False,0.07893572631507792
mp-1221532,MnZn3,"Mn, Zn",2,0.0868220975000007,Hexagonal,187,P-6m2,0.0,True,True,0.04330127018922188
mp-1226559,Co3Ni,"Co, Ni",2,0.023979028749998577,Hexagonal,187,P-6m2,0.0,True,True,0.012990381056766592
mp-1185583,Mg149Re,"Mg, Re",2,0.01568851328333354,Hexagonal,187,P-6m2,0.10880000000000001,True,False,0.04801245208855256
mp-1216545,Tl3Bi,"Bi, Tl",2,0.06876276250000046,Hexagonal,187,P-6m2,0.0,True,True,0.1732050807568877
mp-1023619,Mg15Zr,"Mg, Zr",2,0.0462758559375005,Hexagonal,187,P-6m2,0.0,True,True,0.0048412291827592754
mp-1185966,MgSc3,"Mg, Sc",2,0.05378223750000011,Hexagonal,187,P-6m2,0.0,True,True,0.021650635094610987
mp-1094800,MgSn,"Mg, Sn",2,0.06197647875000012,Hexagonal,187,P-6m2,0.0,True,True,0.32499999999999996
mp-1185536,KMg149,"K, Mg",2,0.013694402718333443,Hexagonal,187,P-6m2,0.015000000000000124,True,False,0.03987474834473011
mp-1185596,Mg149Al,"Al, Mg",2,0.0029045316138891497,Hexagonal,187,P-6m2,0.49839999999999973,True,False,0.024413111231467412
mp-867841,GaTc,"Ga, Tc",2,0.0,Hexagonal,187,P-6m2,0.0,True,True,0.04499999999999993
mp-1094322,MgTi5,"Mg, Ti",2,0.06665169805555582,Hexagonal,187,P-6m2,0.0,True,True,0.08571593913749193
mp-1185639,Mg149Ti,"Mg, Ti",2,0.009609734877777942,Hexagonal,187,P-6m2,0.2243999999999997,True,False,0.018716718610791678
mp-1218350,SrCa,"Ca, Sr",2,0.04870436499999897,Hexagonal,187,P-6m2,0.0,True,True,0.025000000000000022
mp-1039055,Mg3Cd,"Cd, Mg",2,0.04869441874999936,Hexagonal,187,P-6m2,0.0,True,True,0.1645448267190433
mp-1039011,MgCd5,"Cd, Mg",2,0.07805887861111072,Hexagonal,187,P-6m2,0.0,True,True,0.14161763857498663
mp-1023507,Mg15Mn,"Mg, Mn",2,0.0827378679418107,Hexagonal,187,P-6m2,0.0,True,True,0.05809475019311125
mp-1185570,Mg149Pb,"Mg, Pb",2,0.0017951151666668608,Hexagonal,187,P-6m2,0.38280000000000003,True,False,0.08300457818698918
mp-1039385,Ca5Mg,"Ca, Mg",2,0.060712423749999855,Hexagonal,187,P-6m2,0.0,True,True,0.11553017883748914
mp-1023506,Mg15Al,"Al, Mg",2,0.04116723950520851,Hexagonal,187,P-6m2,0.0,True,True,0.07261843774138907
mp-1185635,Mg149Tl,"Mg, Tl",2,0.0018077605666670937,Hexagonal,187,P-6m2,0.4897,True,False,0.025226881605849658
mp-1188044,SrMg149,"Mg, Sr",2,0.00877267110000024,Hexagonal,187,P-6m2,0.47029999999999994,True,False,0.029295733477760898
mp-1226209,CrCo3,"Co, Cr",2,0.08414272125000011,Hexagonal,187,P-6m2,0.0,True,True,0.09526279441628824
mp-1220023,OsRu,"Os, Ru",2,0.0,Hexagonal,187,P-6m2,0.0,True,True,0.0
mp-1185597,Mg149Ga,"Ga, Mg",2,0.0034274778000003003,Hexagonal,187,P-6m2,0.48139999999999983,True,False,0.040688518719112346
mp-600561,LiRh,"Li, Rh",2,0.0,Hexagonal,187,P-6m2,0.0,False,True,0.6499999999999999
mp-1227326,BiPb,"Bi, Pb",2,0.026674705000000465,Hexagonal,187,P-6m2,0.0,True,True,0.15500000000000003
mp-1223787,InAg3,"Ag, In",2,0.07955280999999914,Hexagonal,187,P-6m2,0.0,True,True,0.06495190528383286
mp-1094971,MgGa3,"Ga, Mg",2,0.09938388468750059,Hexagonal,187,P-6m2,0.0,True,True,0.21650635094610965
mp-1023510,YMg15,"Mg, Y",2,0.04364591874999957,Hexagonal,187,P-6m2,0.0,True,True,0.02178553132241674
mp-279,LiIr,"Ir, Li",2,0.0,Hexagonal,187,P-6m2,0.0,False,True,0.6100000000000001
mp-1023593,Mg15Sn,"Mg, Sn",2,0.040260417187500064,Hexagonal,187,P-6m2,0.0,True,True,0.1573399484396763
mp-973372,MgIn5,"In, Mg",2,0.027322769814817516,Hexagonal,187,P-6m2,0.0,True,True,0.1751586582374835
mp-1226007,CoIr,"Co, Ir",2,0.024336602500000026,Hexagonal,187,P-6m2,0.0,True,True,0.16000000000000014
mp-1187974,ZnAg,"Ag, Zn",2,0.01419149499999861,Hexagonal,187,P-6m2,0.0,True,True,0.14
mp-1016305,Mg7Sn,"Mg, Sn",2,0.04670537062500024,Hexagonal,187,P-6m2,0.0,True,True,0.21496729402399797
mp-1016285,Mg7Cu,"Cu, Mg",2,0.06673329406249984,Hexagonal,187,P-6m2,0.0,True,True,0.1951241591910135
mp-983459,HfZr,"Hf, Zr",2,0.0035997624999950517,Hexagonal,187,P-6m2,0.0,True,True,0.015000000000000013
mp-11807,LiPt,"Li, Pt",2,0.0,Hexagonal,187,P-6m2,0.0,False,True,0.6499999999999999
mp-1223936,HgAu3,"Au, Hg",2,0.07764504375000314,Hexagonal,187,P-6m2,0.0,True,True,0.23382685902179845
mp-1094789,Mg3Zn,"Mg, Zn",2,0.07127547865000006,Hexagonal,187,P-6m2,0.0,True,True,0.1472243186433545
mp-1016279,Mg7Zn,"Mg, Zn",2,0.05401655182499998,Hexagonal,187,P-6m2,0.0,True,True,0.11244443072024504
mp-866755,LiMg149,"Li, Mg",2,0.008162057766666564,Hexagonal,187,P-6m2,0.5707,True,False,0.026854422354614153
mp-1185655,Mg149Zr,"Mg, Zr",2,0.008664271433333592,Hexagonal,187,P-6m2,0.03310000000000013,True,False,0.0016275407487644953
mp-974421,IrRu,"Ir, Ru",2,0.01571778687500114,Hexagonal,187,P-6m2,0.0,True,True,0.0
mp-1094314,Sr5Mg,"Mg, Sr",2,0.09135113583333321,Hexagonal,187,P-6m2,0.0,True,True,0.13416407864998742
mp-1094665,LiMg3,"Li, Mg",2,0.021342813750000023,Hexagonal,187,P-6m2,0.0,True,True,0.1428941916244324
mp-1016323,NaMg7,"Mg, Na",2,0.0746067010148117,Hexagonal,187,P-6m2,0.0,True,True,0.12567318727556806
mp-11224,Sr8Al7,"Al, Sr",2,0.008683811691359011,Cubic,198,P2_13,0.0,False,True,0.3292658500361069
mp-21328,HfSn,"Hf, Sn",2,0.09345728124999653,Cubic,198,P2_13,0.0,False,True,0.32999999999999996
mp-317,SnRh,"Rh, Sn",2,0.0,Cubic,198,P2_13,0.0,False,True,0.15999999999999992
mp-8675,HgPd,"Hg, Pd",2,0.07248746749999979,Cubic,198,P2_13,0.0,False,True,0.10000000000000009
mp-7189,AlPd,"Al, Pd",2,0.0,Cubic,198,P2_13,0.0,False,True,0.29500000000000004
mp-1490,AlAu4,"Al, Au",2,0.0,Cubic,198,P2_13,0.0,False,True,0.372
mp-30365,BeAu,"Au, Be",2,0.0,Cubic,198,P2_13,0.0,False,True,0.485
mp-30429,Ba8Ga7,"Ba, Ga",2,0.0,Cubic,198,P2_13,0.0,False,True,0.4589766394442702
mp-27233,SrAl,"Al, Sr",2,0.029386351736112815,Cubic,198,P2_13,0.0,False,True,0.33000000000000007
mp-10904,AlPt,"Al, Pt",2,0.0,Cubic,198,P2_13,0.0,False,True,0.33499999999999985
mp-1204001,Sr3Al2,"Al, Sr",2,0.09768517375925967,Cubic,198,P2_13,0.0,False,True,0.3233326460473796
mp-30667,Sr8Ga7,"Ga, Sr",2,0.0,Cubic,198,P2_13,0.0,False,True,0.42904338035007866
mp-1025551,GaPt,"Ga, Pt",2,0.0,Cubic,198,P2_13,0.0,False,True,0.23499999999999988
mp-1182885,AlCu4,"Al, Cu",2,0.03510869149999962,Cubic,198,P2_13,0.0,False,True,0.11599999999999992
mp-1078526,GaPd,"Ga, Pd",2,0.0,Cubic,198,P2_13,0.0,False,True,0.1950000000000001
mp-12651,MgPt,"Mg, Pt",2,0.0,Cubic,198,P2_13,0.0,False,True,0.4849999999999999
mp-758523,AgHg,"Ag, Hg",2,0.08343215041666241,Cubic,198,P2_13,0.0,True,True,0.03500000000000003
mp-1199262,SrGa,"Ga, Sr",2,0.025159351267360464,Cubic,198,P2_13,0.0,False,True,0.43000000000000005
mp-31430,Na2In,"In, Na",2,0.0,Orthorhombic,20,C222_1,0.0,False,True,0.40069384267237684
mp-30795,Na2Tl,"Na, Tl",2,0.0,Orthorhombic,20,C222_1,0.0,False,True,0.3252691193458119
mp-1210857,Mg26Ag7,"Ag, Mg",2,0.009078166969697321,Cubic,202,Fm-3,0.0,True,True,0.2534623420970868
mp-640333,K49Tl108,"K, Tl",2,0.0,Cubic,200,Pm-3,0.049100000000000144,False,False,0.3706809371612375
mp-1196981,Sc57Pt13,"Pt, Sc",2,0.0,Cubic,200,Pm-3,0.10020000000000007,False,False,0.35776585662031146
mp-1210377,Sc57Ru13,"Ru, Sc",2,0.0,Cubic,200,Pm-3,0.009500000000000064,True,False,0.32665578213158886
mp-30526,Mn4Al19,"Al, Mn",2,0.013860424314382058,Cubic,200,Pm-3,0.0,False,True,0.022742081444560056
mp-30702,Sc29Fe6,"Fe, Sc",2,0.028910899571428672,Cubic,200,Pm-3,0.0,False,True,0.17713502286823635
mp-30863,Sc57Rh13,"Rh, Sc",2,0.0,Cubic,200,Pm-3,0.0,False,True,0.35776585662031146
mp-1201561,Sc57Ir13,"Ir, Sc",2,0.0015502434415584077,Cubic,200,Pm-3,0.025500000000000078,False,False,0.32665578213158886
mp-1203422,Na2Cd11,"Cd, Na",2,0.0038802751676538794,Cubic,200,Pm-3,0.0,False,True,0.27420892134352354
mp-30784,Mg2Zn11,"Mg, Zn",2,0.0,Cubic,200,Pm-3,0.0,False,True,0.12267241217999733
mp-550,Al12Mo,"Al, Mo",2,0.014142691923076711,Cubic,204,Im-3,0.0,False,True,0.14655814525582808
mp-1199166,Be17Os3,"Be, Os",2,0.0,Cubic,204,Im-3,0.0,False,True,0.2249549954990998
mp-1648,Al12Re,"Al, Re",2,0.0,Cubic,204,Im-3,0.0,False,True,0.07727611295307293
mp-569900,Sc3Zn17,"Sc, Zn",2,0.003441102562500742,Cubic,204,Im-3,0.0,False,True,0.10355071221387126
mp-1104165,MnAl12,"Al, Mn",2,0.0,Cubic,204,Im-3,0.0,False,True,0.015988161300635805
mp-30443,Be17Ru3,"Be, Ru",2,0.0,Cubic,204,Im-3,0.0,False,True,0.2249549954990998
mp-568335,Cs2Hg27,"Cs, Hg",2,0.0,Cubic,204,Im-3,0.0,False,True,0.30660854366561846
mp-16719,Al12Tc,"Al, Tc",2,0.0,Cubic,204,Im-3,0.0,False,True,0.07727611295307293
mp-11227,Al12W,"Al, W",2,0.01520368538461625,Cubic,204,Im-3,0.0,False,True,0.19985201625794732
mp-22864,Bi2Pt,"Bi, Pt",2,0.008360557083335607,Cubic,205,Pa-3,0.0,False,True,0.12256517540566814
mp-1223901,InBi3,"Bi, In",2,0.0641679362500005,Orthorhombic,21,C222,0.0,True,True,0.10392304845413264
mp-1223650,InHg3,"Hg, In",2,0.018780601250000473,Orthorhombic,21,C222,0.0,True,True,0.09526279441628824
mp-1196079,Mg3Bi2,"Bi, Mg",2,0.010762412999997473,Cubic,206,Ia-3,0.3094000000000001,True,False,0.3478275434752113
mp-571066,K6Sn25,"K, Sn",2,0.0054246049481547765,Cubic,212,P4_332,0.6545000000000001,False,False,0.4503900494794876
mp-1180309,Mn2Al3,"Al, Mn",2,0.028598418500000555,Cubic,213,P4_132,0.0,False,True,0.029393876913398165
mp-639789,Fe2Re3,"Fe, Re",2,0.0,Cubic,213,P4_132,0.0,False,True,0.034292856398964414
mp-1205290,Zn6Ru,"Ru, Zn",2,0.0,Cubic,213,P4_132,0.011100000000000332,False,False,0.1924599083615355
mp-625,Mg3Ru2,"Mg, Ru",2,0.0,Cubic,213,P4_132,0.0,False,True,0.43600917421540575
mp-1189774,V3Ga2,"Ga, V",2,0.09108865966666535,Cubic,213,P4_132,0.0,False,True,0.08818163074019449
mp-1205133,Ti8In5,"In, Ti",2,0.03034354326923072,Cubic,215,P-43m,0.0,False,True,0.11676102129852478
mp-12541,Ca4Hg9,"Ca, Hg",2,0.03249809865384634,Cubic,215,P-43m,0.0,False,True,0.4615384615384615
mp-1197621,Ga4Cu9,"Cu, Ga",2,0.0,Cubic,215,P-43m,0.0,False,True,0.041538461538461476
mp-504760,Li10Pb3,"Li, Pb",2,0.09865894050000223,Cubic,215,P-43m,0.0,False,True,0.5687888097169034
mp-21975,In4Ag9,"Ag, In",2,0.0,Cubic,215,P-43m,0.0,False,True,0.06923076923076919
mp-683917,In4Cu9,"Cu, In",2,0.023329456813186766,Cubic,215,P-43m,0.0,False,True,0.05538461538461534
mp-680545,In4Au9,"Au, In",2,0.019376369999996257,Cubic,215,P-43m,0.0,False,True,0.3507692307692308
mp-593,Al4Cu9,"Al, Cu",2,0.0,Cubic,215,P-43m,0.0,False,True,0.13384615384615375
mp-862779,Tc3Os,"Os, Tc",2,0.0,Hexagonal,194,P6_3/mmc,0.0,True,True,0.1299038105676659
mp-984351,CuAg3,"Ag, Cu",2,0.0857078075000004,Hexagonal,194,P6_3/mmc,0.0,True,True,0.012990381056766592
mp-1103618,NbNi2,"Nb, Ni",2,0.07626971661111259,Hexagonal,194,P6_3/mmc,0.0,True,True,0.14613540144521975
mp-13364,CaZn2,"Ca, Zn",2,0.025244847500000445,Hexagonal,194,P6_3/mmc,0.0,False,True,0.30641293851417056
mp-11275,Be2Re,"Be, Re",2,0.0,Hexagonal,194,P6_3/mmc,0.0,False,True,0.15556349186104038
mp-1095443,ScFe2,"Fe, Sc",2,0.018883651666667944,Hexagonal,194,P6_3/mmc,0.0,False,True,0.22156012477178488
mp-1183046,ZrTi3,"Ti, Zr",2,0.04050627250000005,Hexagonal,194,P6_3/mmc,0.0,True,True,0.09093266739736605
mp-1185939,MgPd3,"Mg, Pd",2,0.023470679999990196,Hexagonal,194,P6_3/mmc,0.0,True,True,0.3853813046840752
mp-1190880,HfMn2,"Hf, Mn",2,0.014135472916663616,Hexagonal,194,P6_3/mmc,0.0,False,True,0.11785113019775792
mp-1192084,HfZn2,"Hf, Zn",2,0.0014859958333310885,Hexagonal,194,P6_3/mmc,0.0,False,True,0.16499158227686103
mp-11820,BaNa2,"Ba, Na",2,0.0096082950957872,Hexagonal,194,P6_3/mmc,0.0,False,True,0.018856180831641284
mp-1212567,Hf2Be17,"Be, Hf",2,0.0,Hexagonal,194,P6_3/mmc,0.0,True,True,0.08286089534780164
mp-1186197,NaTl3,"Na, Tl",2,0.01580484500000523,Hexagonal,194,P6_3/mmc,0.0,True,True,0.29877876430563133
mp-568315,CdCu2,"Cd, Cu",2,0.009884054999998781,Hexagonal,194,P6_3/mmc,0.0,False,True,0.09899494936611664
mp-30778,Mg5Rh2,"Mg, Rh",2,0.0,Hexagonal,194,P6_3/mmc,0.0,False,True,0.4382013329090467
mp-27838,Na3Bi,"Bi, Na",2,0.0,Hexagonal,194,P6_3/mmc,0.0,False,True,0.47198384506251906
mp-1008488,BiPd,"Bi, Pd",2,0.0,Hexagonal,194,P6_3/mmc,0.0,False,True,0.09000000000000008
mp-569446,NiPb,"Ni, Pb",2,0.0873680799999974,Hexagonal,194,P6_3/mmc,0.0,False,True,0.21000000000000008
mp-20760,La2In,"In, La",2,0.0,Hexagonal,194,P6_3/mmc,0.0,False,True,0.3205550741379015
mp-864894,Be3Rh,"Be, Rh",2,0.0,Hexagonal,194,P6_3/mmc,0.0,True,True,0.3074390183434756
mp-1183963,CsRb3,"Cs, Rb",2,0.04709288696120639,Hexagonal,194,P6_3/mmc,0.0,True,True,0.012990381056766543
mp-865612,LiCd3,"Cd, Li",2,0.0,Hexagonal,194,P6_3/mmc,0.0,True,True,0.3074390183434757
mp-1186447,PdAu3,"Au, Pd",2,0.011592617499999847,Hexagonal,194,P6_3/mmc,0.0,True,True,0.1472243186433545
mp-1188000,Zn3Au,"Au, Zn",2,0.027401257187502637,Hexagonal,194,P6_3/mmc,0.0,True,True,0.3853813046840752
mp-30787,MoRh3,"Mo, Rh",2,0.0,Hexagonal,194,P6_3/mmc,0.0,False,True,0.05196152422706617
mp-1184858,InCu3,"Cu, In",2,0.02753109571428425,Hexagonal,194,P6_3/mmc,0.0,True,True,0.05196152422706627
mp-1183206,Ag3Pd,"Ag, Pd",2,0.005026156250000469,Hexagonal,194,P6_3/mmc,0.0,True,True,0.11691342951089932
mp-974030,LaRh3,"La, Rh",2,0.0,Hexagonal,194,P6_3/mmc,0.0,False,True,0.5109549882328187
mp-865565,CsSn3,"Cs, Sn",2,0.08228202156661268,Hexagonal,194,P6_3/mmc,0.0,True,True,0.5066248612138966
mp-1064554,BiRh,"Bi, Rh",2,0.0,Hexagonal,194,P6_3/mmc,0.0,False,True,0.1299999999999999
mp-11456,HfPt3,"Hf, Pt",2,0.0,Hexagonal,194,P6_3/mmc,0.0,False,True,0.42435244785437487
mp-1018053,InCu,"Cu, In",2,0.04993737774999829,Hexagonal,194,P6_3/mmc,0.0,True,True,0.05999999999999994
mp-1185338,LiCu3,"Cu, Li",2,0.008405183749999878,Hexagonal,194,P6_3/mmc,0.0,True,True,0.3983716857408417
mp-20033,SnIr,"Ir, Sn",2,0.0,Hexagonal,194,P6_3/mmc,0.0,False,True,0.1200000000000001
mp-959,LaAl3,"Al, La",2,0.0,Hexagonal,194,P6_3/mmc,0.0,False,True,0.22083647796503186
mp-867357,Tc3Ni,"Ni, Tc",2,0.0,Hexagonal,194,P6_3/mmc,0.0,True,True,0.004330127018922198
mp-11453,HfPd3,"Hf, Pd",2,0.0,Hexagonal,194,P6_3/mmc,0.0,False,True,0.38971143170299744
mp-1186374,Os3W,"Os, W",2,0.0,Hexagonal,194,P6_3/mmc,0.0,True,True,0.06928203230275497
mp-984744,Ca3Tl,"Ca, Tl",2,0.0,Hexagonal,194,P6_3/mmc,0.0,True,True,0.26846787517317605
mp-973904,HfCr2,"Cr, Hf",2,0.0929956537499983,Hexagonal,194,P6_3/mmc,0.0,False,True,0.16970562748477133
mp-1025402,SrCu,"Cu, Sr",2,0.0,Hexagonal,194,P6_3/mmc,0.0,False,True,0.475
mp-1186923,Re3Rh,"Re, Rh",2,0.0,Hexagonal,194,P6_3/mmc,0.0,True,True,0.1645448267190433
mp-1679,La2Ni7,"La, Ni",2,0.00021988277776507914,Hexagonal,194,P6_3/mmc,0.0,False,True,0.33674916480965467
mp-1200992,Y2Zn17,"Y, Zn",2,0.0035459178947370162,Hexagonal,194,P6_3/mmc,0.0,False,True,0.13196364814649889
mp-570608,ZrCr2,"Cr, Zr",2,0.00449436791666713,Hexagonal,194,P6_3/mmc,0.0,False,True,0.15556349186104038
mp-570718,Y2Co17,"Co, Y",2,0.0019175944736833372,Hexagonal,194,P6_3/mmc,0.0,False,True,0.2025488552946262
mp-30438,Be2Cr,"Be, Cr",2,0.0,Hexagonal,194,P6_3/mmc,0.0,False,True,0.042426406871192784
mp-30877,SrTl2,"Sr, Tl",2,0.0,Hexagonal,194,P6_3/mmc,0.0,False,True,0.3158410289299913
mp-210,BaLi4,"Ba, Li",2,0.0,Hexagonal,194,P6_3/mmc,0.0,False,True,0.03599999999999999
mp-1205088,La13Hg58,"Hg, La",2,0.03438915887323901,Hexagonal,194,P6_3/mmc,0.08589999999999964,False,False,0.3480725970696164
mp-1095057,VCo3,"Co, V",2,0.09418410500000007,Hexagonal,194,P6_3/mmc,0.0,True,True,0.10825317547305482
mp-862630,ReRu3,"Re, Ru",2,0.0,Hexagonal,194,P6_3/mmc,0.0,True,True,0.1299038105676659
mp-2454,TiFe2,"Fe, Ti",2,0.0,Hexagonal,194,P6_3/mmc,0.0,False,True,0.1367073110293992
mp-862260,ScZn3,"Sc, Zn",2,0.0,Hexagonal,194,P6_3/mmc,0.0,True,True,0.12557368354874351
mp-862770,Tc3Ir,"Ir, Tc",2,0.0,Hexagonal,194,P6_3/mmc,0.0,True,True,0.1299038105676659
mp-867797,RbTl3,"Rb, Tl",2,0.015386987999999935,Hexagonal,194,P6_3/mmc,0.0,True,True,0.3464101615137755
mp-1186099,Na3Zn,"Na, Zn",2,0.0815155540583552,Hexagonal,194,P6_3/mmc,0.0,True,True,0.31176914536239786
mp-20883,Fe3Sn,"Fe, Sn",2,0.03582342999999888,Hexagonal,194,P6_3/mmc,0.0,False,True,0.056291651245988464
mp-568375,La2Rh7,"La, Rh",2,0.013929699166667753,Hexagonal,194,P6_3/mmc,0.0,False,True,0.49057285737702777
mp-1079298,NaTl,"Na, Tl",2,0.05368205749999788,Hexagonal,194,P6_3/mmc,0.0,False,True,0.34500000000000003