material_id,formula,elements,num_elements,energy_above_hull,crystal_system,spacegroup_number,spacegroup_symbol,band_gap,theoretical,is_metal,electronegativity_difference
mp-1216300,Zr20Sn13,"Sn, Zr",2,0.007346828030300401,Monoclinic,10,P2/m,0.0,True,True,0.30783165948049
mp-1217869,Ti24Pb19,"Pb, Ti",2,0.007046246976742054,Monoclinic,10,P2/m,0.0,True,True,0.39232054972580166
mp-1217804,Ta11Al4,"Al, Ta",2,0.022964813733324263,Monoclinic,10,P2/m,0.0,True,True,0.048643830258545906
mp-1223755,InPt2,"In, Pt",2,0.028406739583338947,Monoclinic,10,P2/m,0.0,True,True,0.23570226039551573
mp-1223977,In5Pt11,"In, Pt",2,0.01910792250000526,Monoclinic,10,P2/m,0.0,True,True,0.23175620272173936
mp-567345,NbRh,"Nb, Rh",2,0.01561178666666585,Monoclinic,10,P2/m,0.0,False,True,0.33999999999999986
mp-1216708,V3Ni2,"Ni, V",2,0.0,Monoclinic,10,P2/m,0.0,True,True,0.137171425595858
mp-1188928,In9Cu11,"Cu, In",2,0.004639985025001181,Monoclinic,10,P2/m,0.0,True,True,0.05969924622639714
mp-1228008,BaBi5,"Ba, Bi",2,0.07281481499999964,Monoclinic,10,P2/m,0.0,True,True,0.4211261357624604
mp-1219822,Ni7Sn8,"Ni, Sn",2,0.004870725714285484,Monoclinic,10,P2/m,0.0,True,True,0.024944382578492963
mp-569073,LiSn,"Li, Sn",2,0.0,Monoclinic,10,P2/m,0.0,False,True,0.49
mp-20466,Sn7Ir5,"Ir, Sn",2,0.002421364999996456,Tetragonal,107,I4mm,0.0,False,True,0.11832159566199243
mp-31284,NaSn5,"Na, Sn",2,0.022532833333333002,Tetragonal,113,P-42_1m,0.0,False,True,0.38385833613746384
mp-1207561,Zr8Bi13,"Bi, Zr",2,0.0,Tetragonal,116,P-4c2,0.0,True,True,0.3350784251789544
mp-30665,Ga17Rh10,"Ga, Rh",2,0.0,Tetragonal,116,P-4c2,0.0,False,True,0.22696482447742544
mp-680677,Sn3Ru2,"Ru, Sn",2,0.0,Tetragonal,116,P-4c2,0.0,False,True,0.11757550765359265
mp-680443,K4Pb9,"K, Pb",2,0.007496892884610418,Monoclinic,11,P2_1/m,0.28259999999999996,False,False,0.6969230769230771
mp-680463,Rb4Pb9,"Pb, Rb",2,0.0,Monoclinic,11,P2_1/m,0.31099999999999994,False,False,0.6969230769230771
mp-979261,TiPd,"Pd, Ti",2,0.011486497500001747,Monoclinic,11,P2_1/m,0.0,True,True,0.33000000000000007
mp-30471,CaCu,"Ca, Cu",2,0.00013930450000110284,Monoclinic,11,P2_1/m,0.0,False,True,0.44999999999999996
mp-30420,SrAu,"Au, Sr",2,0.0,Monoclinic,11,P2_1/m,0.0,False,True,0.795
mp-1007786,HfIr,"Hf, Ir",2,0.0,Monoclinic,11,P2_1/m,0.0,True,True,0.45000000000000007
mp-1048,TiNi,"Ni, Ti",2,0.0,Monoclinic,11,P2_1/m,0.0,False,True,0.18499999999999994
mp-1067210,ZrCu,"Cu, Zr",2,0.02489150673077134,Monoclinic,11,P2_1/m,0.0,False,True,0.2849999999999999
mp-567638,TaPt3,"Pt, Ta",2,0.0,Monoclinic,11,P2_1/m,0.0,False,True,0.337749907475931
mp-1399,AlAu,"Al, Au",2,0.0,Monoclinic,11,P2_1/m,0.0,False,True,0.46499999999999997
mp-1199016,Ga5Pt,"Ga, Pt",2,0.0,Monoclinic,11,P2_1/m,0.0,False,True,0.17515865823748344
mp-569776,TaNi3,"Ni, Ta",2,0.0,Monoclinic,11,P2_1/m,0.0,False,True,0.1775352077758099
mp-30768,Li7Sn3,"Li, Sn",2,0.0009651171666664737,Monoclinic,11,P2_1/m,0.0,False,True,0.4490924181056723
mp-12700,NbPt3,"Nb, Pt",2,0.0,Monoclinic,11,P2_1/m,0.0,False,True,0.294448637286709
mp-1179013,TiNi,"Ni, Ti",2,0.010050409999999843,Monoclinic,11,P2_1/m,0.0,False,True,0.18499999999999994
mp-574338,CsGa3,"Cs, Ga",2,0.0,Tetragonal,119,I-4m2,0.0,False,True,0.4416729559300637
mp-30589,LaCu4,"Cu, La",2,0.007857694666665083,Tetragonal,119,I-4m2,0.0,False,True,0.31999999999999995
mp-542339,CsIn3,"Cs, In",2,0.0,Tetragonal,119,I-4m2,0.0,False,True,0.4286825748732971
mp-1218964,SnBi,"Bi, Sn",2,0.031744037499998434,Tetragonal,119,I-4m2,0.0,True,True,0.030000000000000027
mp-31493,RbGa3,"Ga, Rb",2,0.0,Tetragonal,119,I-4m2,0.14719999999999978,False,False,0.4286825748732972
mp-181,KGa3,"Ga, K",2,0.0,Tetragonal,119,I-4m2,0.21629999999999994,False,False,0.4286825748732972
mp-1212680,Ga5Ir3,"Ga, Ir",2,0.0,Tetragonal,118,P-4n2,0.0,True,True,0.18880793812761162
mp-1207419,Zr3Bi5,"Bi, Zr",2,0.0036636887499996718,Tetragonal,118,P-4n2,0.0,True,True,0.3340448136103897
mp-672326,In3Ru,"In, Ru",2,0.0003034275000004527,Tetragonal,118,P-4n2,0.20950000000000024,False,False,0.1818653347947322
mp-30748,Zr3Ir,"Ir, Zr",2,0.0,Tetragonal,121,I-42m,0.0,False,True,0.37672105064623085
mp-30412,Pb3Au,"Au, Pb",2,0.005083911875004787,Tetragonal,121,I-42m,0.0,False,True,0.09093266739736605
mp-582055,La7Ni16,"La, Ni",2,0.0,Tetragonal,121,I-42m,0.0,False,True,0.37270583686301184
mp-1188413,Zr3Rh,"Rh, Zr",2,0.0,Tetragonal,121,I-42m,0.0,True,True,0.4113620667976083
mp-569841,Ba19Li44,"Ba, Li",2,0.006834211772487109,Tetragonal,122,I-42d,0.0,False,True,0.04130523512800273
mp-1195042,Sr19Li44,"Li, Sr",2,0.0,Tetragonal,122,I-42d,0.02279999999999993,False,False,0.01376841170933426
mp-1526,TiHg,"Hg, Ti",2,0.0,Tetragonal,123,P4/mmm,0.0,False,True,0.22999999999999998
mp-522,CuAu,"Au, Cu",2,0.0,Tetragonal,123,P4/mmm,0.0,False,True,0.32000000000000006
mp-985825,Al3Cu,"Al, Cu",2,0.05647424749999974,Tetragonal,123,P4/mmm,0.0,True,True,0.12557368354874351
mp-1222584,Li3Ag2,"Ag, Li",2,0.022602524333333207,Tetragonal,123,P4/mmm,0.0,True,True,0.46540305112880387
mp-1228713,Al4Ni15,"Al, Ni",2,0.08960537473684305,Tetragonal,123,P4/mmm,0.0,True,True,0.12230473724865519
mp-1963,NbRh,"Nb, Rh",2,0.0,Tetragonal,123,P4/mmm,0.0,False,True,0.33999999999999986
mp-1225751,Cu3Pd2,"Cu, Pd",2,0.007773933428572022,Tetragonal,123,P4/mmm,0.0,True,True,0.14696938456699082
mp-2685,HgPd,"Hg, Pd",2,0.0,Tetragonal,123,P4/mmm,0.0,False,True,0.10000000000000009
mp-1217113,Ti3Ir2,"Ir, Ti",2,0.05711464100000008,Tetragonal,123,P4/mmm,0.0,True,True,0.3233326460473796
mp-1601,TaRu,"Ru, Ta",2,0.0,Tetragonal,123,P4/mmm,0.0,False,True,0.3500000000000001
mp-1206750,CrPt,"Cr, Pt",2,0.0,Tetragonal,123,P4/mmm,0.0,True,True,0.30999999999999994
mp-2831,FePd,"Fe, Pd",2,0.008477096666666739,Tetragonal,123,P4/mmm,0.0,False,True,0.18500000000000005
mp-601820,Fe3Co,"Co, Fe",2,0.0,Tetragonal,123,P4/mmm,0.0,True,True,0.02165063509461089
mp-1359,NbIr,"Ir, Nb",2,0.0,Tetragonal,123,P4/mmm,0.0,False,True,0.30000000000000004
mp-1018715,Hf5Pb,"Hf, Pb",2,0.06818339500000548,Tetragonal,123,P4/mmm,0.0,True,True,0.3838583361374639
mp-641526,Fe13Co3,"Co, Fe",2,0.0037431268750012237,Tetragonal,123,P4/mmm,0.0,True,True,0.019515618744994925
mp-1224475,HfPt4,"Hf, Pt",2,0.0,Tetragonal,123,P4/mmm,0.0,True,True,0.3919999999999999
mp-2213,FeNi,"Fe, Ni",2,0.0,Tetragonal,123,P4/mmm,0.0,False,True,0.039999999999999925
mp-11470,Hg2Pt,"Hg, Pt",2,0.022148594999990223,Tetragonal,123,P4/mmm,0.0,False,True,0.13199326582148876
mp-1225009,Fe3Ni2,"Fe, Ni",2,0.02161789500000033,Tetragonal,123,P4/mmm,0.0,True,True,0.039191835884530776
mp-1696,CdPd,"Cd, Pd",2,0.0,Tetragonal,123,P4/mmm,0.0,False,True,0.2550000000000001
mp-2260,FePt,"Fe, Pt",2,0.0,Tetragonal,123,P4/mmm,0.0,False,True,0.22499999999999987
mp-2767,TiGa,"Ga, Ti",2,0.0,Tetragonal,123,P4/mmm,0.0,False,True,0.135
mp-1207100,ScIn,"In, Sc",2,0.0,Tetragonal,123,P4/mmm,0.0,True,True,0.20999999999999996
mp-1223984,HgPb3,"Hg, Pb",2,0.03839737562499579,Tetragonal,123,P4/mmm,0.0,True,True,0.1428941916244324
mp-11798,Fe3Pt,"Fe, Pt",2,0.042699720000000774,Tetragonal,123,P4/mmm,0.0,True,True,0.19485571585149858
mp-2678,VPt,"Pt, V",2,0.0,Tetragonal,123,P4/mmm,0.0,False,True,0.32499999999999996
mp-1100166,YMg3,"Mg, Y",2,0.03278540500000027,Tetragonal,123,P4/mmm,0.0,True,True,0.038971143170299774
mp-22924,NaBi,"Bi, Na",2,0.0,Tetragonal,123,P4/mmm,0.0,False,True,0.545
mp-20034,CaPb,"Ca, Pb",2,0.0,Tetragonal,123,P4/mmm,0.0,False,True,0.665
mp-432,NbRu,"Nb, Ru",2,0.0,Tetragonal,123,P4/mmm,0.0,False,True,0.30000000000000004
mp-22902,LiBi,"Bi, Li",2,0.0,Tetragonal,123,P4/mmm,0.0,False,True,0.52
mp-1094883,MgGa,"Ga, Mg",2,0.016862435000000175,Tetragonal,123,P4/mmm,0.0,True,True,0.25
mp-1797,MnNi,"Mn, Ni",2,0.036898397356321055,Tetragonal,123,P4/mmm,0.0,False,True,0.17999999999999994
mp-1094998,CaMg,"Ca, Mg",2,0.0008479812499992967,Tetragonal,123,P4/mmm,0.0,True,True,0.15500000000000003
mp-1216825,TiIn,"In, Ti",2,0.0,Tetragonal,123,P4/mmm,0.0,True,True,0.12
mp-999542,MnFe3,"Fe, Mn",2,0.05122086301724238,Tetragonal,123,P4/mmm,0.0,True,True,0.12124355652982143
mp-998945,TiNi,"Ni, Ti",2,0.06664096999999991,Tetragonal,123,P4/mmm,0.0,True,True,0.18499999999999994
mp-1094673,LiMg,"Li, Mg",2,0.0007004199999998129,Tetragonal,123,P4/mmm,0.0,True,True,0.16500000000000004
mp-1094974,MgZr,"Mg, Zr",2,0.09162435749999975,Tetragonal,123,P4/mmm,0.0,True,True,0.010000000000000009
mp-1215488,Zn5Pd3,"Pd, Zn",2,0.04715498718749789,Tetragonal,123,P4/mmm,0.0,True,True,0.26626760505176006
mp-11870,Hg2Rh,"Hg, Rh",2,0.0,Tetragonal,123,P4/mmm,0.0,False,True,0.13199326582148876
mp-1652,ZnPd,"Pd, Zn",2,0.0,Tetragonal,123,P4/mmm,0.0,False,True,0.27500000000000013
mp-1039124,MgCd,"Cd, Mg",2,0.015672457500000903,Tetragonal,123,P4/mmm,0.0,True,True,0.18999999999999995
mp-1215509,ZnPd2,"Pd, Zn",2,0.03810477666666845,Tetragonal,123,P4/mmm,0.0,True,True,0.25927248643506756
mp-1218044,Ta3Ru2,"Ru, Ta",2,0.0,Tetragonal,123,P4/mmm,0.0,True,True,0.34292856398964505
mp-1215997,YIn,"In, Y",2,0.0021521849999999176,Tetragonal,123,P4/mmm,0.0,True,True,0.28
mp-1225083,FeCo3,"Co, Fe",2,0.08142938999999938,Tetragonal,123,P4/mmm,0.0,True,True,0.02165063509461089
mp-758104,Mn11Pd21,"Mn, Pd",2,0.0234693900000007,Tetragonal,123,P4/mmm,0.0,False,True,0.3087232718694042
mp-1001836,MnGa,"Ga, Mn",2,0.0,Tetragonal,123,P4/mmm,0.0,False,True,0.13
mp-1953,TiAl,"Al, Ti",2,0.0,Tetragonal,123,P4/mmm,0.0,False,True,0.03500000000000003
mp-1094801,MgSn,"Mg, Sn",2,0.021182148749999463,Tetragonal,123,P4/mmm,0.0,True,True,0.32499999999999996
mp-1216611,TlIn3,"In, Tl",2,0.008411200000001173,Tetragonal,123,P4/mmm,0.0,True,True,0.06928203230275505
mp-570199,Ti3Pd5,"Pd, Ti",2,0.0008255312500011769,Tetragonal,123,P4/mmm,0.0,False,True,0.31952112606211197
mp-1251,VRh,"Rh, V",2,0.04173331499999833,Tetragonal,123,P4/mmm,0.0,False,True,0.32499999999999996
mp-1120769,RuPt,"Pt, Ru",2,0.07581536,Tetragonal,123,P4/mmm,0.0,True,True,0.039999999999999813
mp-1670,MnPt,"Mn, Pt",2,0.0,Tetragonal,123,P4/mmm,0.0,False,True,0.3649999999999999
mp-2583,TiRh,"Rh, Ti",2,0.0,Tetragonal,123,P4/mmm,0.0,False,True,0.3699999999999999
mp-2510,ZrHg,"Hg, Zr",2,0.0,Tetragonal,123,P4/mmm,0.0,False,True,0.33499999999999996
mp-1094862,MgZn,"Mg, Zn",2,0.05325654730000018,Tetragonal,123,P4/mmm,0.0,True,True,0.16999999999999993
mp-429,ZnNi,"Ni, Zn",2,0.0,Tetragonal,123,P4/mmm,0.0,False,True,0.13
mp-11359,Ga2Cu,"Cu, Ga",2,0.0,Tetragonal,123,P4/mmm,0.0,False,True,0.042426406871192784
mp-1217961,TaAu,"Au, Ta",2,0.01817297625000691,Tetragonal,123,P4/mmm,0.0,True,True,0.52
mp-1039141,MgAl,"Al, Mg",2,0.02454345875000019,Tetragonal,123,P4/mmm,0.0,True,True,0.15000000000000002
mp-945,NiPt,"Ni, Pt",2,0.0,Tetragonal,123,P4/mmm,0.0,False,True,0.18499999999999994
mp-1207380,ZrIn,"In, Zr",2,0.0,Tetragonal,123,P4/mmm,0.0,True,True,0.22499999999999998
mp-12675,MnAu,"Au, Mn",2,0.07166042301724218,Tetragonal,123,P4/mmm,0.0,False,True,0.495
mp-1018140,MgNi,"Mg, Ni",2,0.045670855763889406,Tetragonal,123,P4/mmm,0.0,True,True,0.29999999999999993
mp-1228868,AlNi,"Al, Ni",2,0.02678004500000064,Tetragonal,123,P4/mmm,0.0,True,True,0.1499999999999999
mp-1281,VIr,"Ir, V",2,0.04575373000000127,Tetragonal,123,P4/mmm,0.0,False,True,0.28500000000000014
mp-949,CoPt,"Co, Pt",2,0.0,Tetragonal,123,P4/mmm,0.0,False,True,0.19999999999999996
mp-1215473,ZnFe,"Fe, Zn",2,0.022560960833332366,Tetragonal,123,P4/mmm,0.0,True,True,0.09000000000000008
mp-672265,Cu3Pd,"Cu, Pd",2,0.0,Tetragonal,123,P4/mmm,0.0,False,True,0.1299038105676659
mp-1215257,ZrRh,"Rh, Zr",2,0.07473740749999891,Tetragonal,123,P4/mmm,0.0,True,True,0.47499999999999987
mp-1194,CdPt,"Cd, Pt",2,0.0,Tetragonal,123,P4/mmm,0.0,False,True,0.29499999999999993
mp-1056985,TiPd,"Pd, Ti",2,0.026569954999999368,Tetragonal,123,P4/mmm,0.0,True,True,0.33000000000000007
mp-1206659,HfIr,"Hf, Ir",2,0.03781439249999963,Tetragonal,123,P4/mmm,0.0,True,True,0.45000000000000007
mp-771,MnAl,"Al, Mn",2,0.0,Tetragonal,123,P4/mmm,0.0,False,True,0.030000000000000027
mp-1229048,Al2Ni3,"Al, Ni",2,0.0592241350000009,Tetragonal,123,P4/mmm,0.0,True,True,0.1469693845669906
mp-1098156,LaMg3,"La, Mg",2,0.09047946500000004,Tetragonal,123,P4/mmm,0.0,True,True,0.09093266739736605
mp-1235,TiIr,"Ir, Ti",2,0.0,Tetragonal,123,P4/mmm,0.0,False,True,0.33000000000000007
mp-238,MnPd,"Mn, Pd",2,0.0022244234137920316,Tetragonal,123,P4/mmm,0.0,False,True,0.32500000000000007
mp-894,ZnPt,"Pt, Zn",2,0.0,Tetragonal,123,P4/mmm,0.0,False,True,0.31499999999999995
mp-1215236,ZrTi,"Ti, Zr",2,0.0883353483333309,Tetragonal,123,P4/mmm,0.0,True,True,0.10499999999999998
mp-1017541,ZrIr,"Ir, Zr",2,0.07278834124999634,Tetragonal,123,P4/mmm,0.0,True,True,0.43500000000000005
mp-1217081,Ti3Al5,"Al, Ti",2,0.03238265812499819,Tetragonal,123,P4/mmm,0.0,True,True,0.03388860427931493
mp-510436,InPd3,"In, Pd",2,0.025990728749999192,Tetragonal,123,P4/mmm,0.0,False,True,0.1818653347947322
mp-1228752,Al4Cu15,"Al, Cu",2,0.06176557578947239,Tetragonal,123,P4/mmm,0.0,True,True,0.11822791267370003
mp-1009134,MnFe,"Fe, Mn",2,0.09255887603448265,Tetragonal,123,P4/mmm,0.0,True,True,0.14
mp-1215274,ZrAu,"Au, Zr",2,0.026930405000001656,Tetragonal,123,P4/mmm,0.0,True,True,0.605
mp-644739,LaGa6,"Ga, La",2,0.0,Tetragonal,125,P4/nbm,0.0,False,True,0.24844824533943663
mp-30681,YGa6,"Ga, Y",2,0.02514581607142885,Tetragonal,125,P4/nbm,0.0,False,True,0.20645699260601075
mp-21296,PtPb4,"Pb, Pt",2,0.0,Tetragonal,125,P4/nbm,0.0,False,True,0.020000000000000108
mp-1202778,K3Cd16,"Cd, K",2,0.0,Tetragonal,126,P4/nnc,0.0,False,True,0.31723877949156276
mp-11288,Ca3Hg2,"Ca, Hg",2,0.0,Tetragonal,127,P4/mbm,0.0,False,True,0.4898979485566356
mp-607111,AlPt3,"Al, Pt",2,0.0,Tetragonal,127,P4/mbm,0.0,False,True,0.29011851026778684
mp-1079182,AlPt3,"Al, Pt",2,0.013525094375005153,Tetragonal,127,P4/mbm,0.0,False,True,0.29011851026778684
mp-30684,Zr3Ga2,"Ga, Zr",2,0.0,Tetragonal,127,P4/mbm,0.0,False,True,0.2351510153071851
mp-1080493,Y3Au2,"Au, Y",2,0.04981915999999842,Tetragonal,127,P4/mbm,0.0,False,True,0.646665292094759
mp-623066,GaPt3,"Ga, Pt",2,0.0047773362500018735,Tetragonal,127,P4/mbm,0.0,True,True,0.20351596988934298
mp-20405,V2Ga5,"Ga, V",2,0.0,Tetragonal,127,P4/mbm,0.0,False,True,0.08131571126147268
mp-1103522,Ga5W2,"Ga, W",2,0.05819230464285852,Tetragonal,127,P4/mbm,0.0,False,True,0.248464673298944
mp-759790,Ag2Hg5,"Ag, Hg",2,0.07978825095237596,Tetragonal,127,P4/mbm,0.0,True,True,0.03162277660168382
mp-1105078,Hf3In4,"Hf, In",2,0.07661191571428816,Tetragonal,127,P4/mbm,0.0,False,True,0.23753839646658886
mp-1078957,Ta3Be2,"Be, Ta",2,0.0,Tetragonal,127,P4/mbm,0.0,False,True,0.034292856398964525
mp-607225,Mn2Ga5,"Ga, Mn",2,0.032226584285714566,Tetragonal,127,P4/mbm,0.0,False,True,0.11745602737768267
mp-20433,Ti3In4,"In, Ti",2,0.0936128061904764,Tetragonal,127,P4/mbm,0.0,False,True,0.11876919823329443
mp-30721,Hg5Pd2,"Hg, Pd",2,0.03967810749999523,Tetragonal,127,P4/mbm,0.0,False,True,0.0903507902905252
mp-13427,Sr3Hg2,"Hg, Sr",2,0.0,Tetragonal,127,P4/mbm,0.0,False,True,0.5143928459844674
mp-568774,Ca36Sn23,"Ca, Sn",2,0.0022643168314497863,Tetragonal,127,P4/mbm,0.0671999999999997,False,False,0.46820321312341123
mp-11272,Be2Nb3,"Be, Nb",2,0.0,Tetragonal,127,P4/mbm,0.0,False,True,0.014696938456699081
mp-1078666,GaPt3,"Ga, Pt",2,0.014097253750001926,Tetragonal,127,P4/mbm,0.0,False,True,0.20351596988934298
mp-669913,Sr2Pb3,"Pb, Sr",2,0.00764726599999932,Tetragonal,127,P4/mbm,0.0,False,True,0.6760591690081572
mp-11393,Nb3Ga2,"Ga, Nb",2,0.0,Tetragonal,127,P4/mbm,0.0,False,True,0.10287856919689346
mp-7924,Li2Sn5,"Li, Sn",2,0.0046469228571428545,Tetragonal,127,P4/mbm,0.0,False,True,0.4427188724235731
mp-22050,Hf2In5,"Hf, In",2,0.0,Tetragonal,127,P4/mbm,0.0,False,True,0.21684189669726028
mp-16756,Ta3Ga2,"Ga, Ta",2,0.0,Tetragonal,127,P4/mbm,0.0,False,True,0.15186836405255708
mp-1228815,AlRe,"Al, Re",2,0.0,Tetragonal,129,P4/nmm,0.0,True,True,0.1449999999999999
mp-622570,Ti2Cu3,"Cu, Ti",2,0.0024576344999989175,Tetragonal,129,P4/nmm,0.0,False,True,0.17636326148038875
mp-998972,TiAu,"Au, Ti",2,0.0,Tetragonal,129,P4/nmm,0.0,False,True,0.5
mp-640045,Ti8Bi9,"Bi, Ti",2,0.0,Tetragonal,129,P4/nmm,0.0,False,True,0.23958441527261845
mp-1007758,HfCd,"Cd, Hf",2,0.0,Tetragonal,129,P4/nmm,0.0,False,True,0.19499999999999995
mp-999133,TaPd,"Pd, Ta",2,0.0,Tetragonal,129,P4/nmm,0.0,False,True,0.3500000000000001
mp-11239,ZrAg,"Ag, Zr",2,0.0,Tetragonal,129,P4/nmm,0.0,False,True,0.29999999999999993
mp-1067475,TiNi,"Ni, Ti",2,0.07174623499999999,Tetragonal,129,P4/nmm,0.0,True,True,0.18499999999999994
mp-2078,TiCu,"Cu, Ti",2,0.0,Tetragonal,129,P4/nmm,0.0,False,True,0.17999999999999994
mp-1007755,HfAu,"Au, Hf",2,0.0,Tetragonal,129,P4/nmm,0.0,False,True,0.62
mp-23313,InBi,"Bi, In",2,0.04432653499999617,Tetragonal,129,P4/nmm,0.0,False,True,0.12
mp-1017985,TiAg,"Ag, Ti",2,0.0,Tetragonal,129,P4/nmm,0.0,False,True,0.19499999999999995
mp-13156,HfAg,"Ag, Hf",2,0.0,Tetragonal,129,P4/nmm,0.0,False,True,0.31499999999999995
mp-1017540,ZrCd,"Cd, Zr",2,0.0,Tetragonal,129,P4/nmm,0.0,False,True,0.17999999999999994
mp-1071777,SrAl2,"Al, Sr",2,0.014346743333332412,Tetragonal,129,P4/nmm,0.0,True,True,0.311126983722081
mp-30500,TiCd,"Cd, Ti",2,0.0,Tetragonal,129,P4/nmm,0.0,False,True,0.07499999999999996
mp-1199235,La5Ir3,"Ir, La",2,0.0,Tetragonal,130,P4/ncc,0.0,False,True,0.5325352101035199
mp-1198712,Y5Ir3,"Ir, Y",2,0.0,Tetragonal,130,P4/ncc,0.0,False,True,0.4744404599104087
mp-672217,La5Ga3,"Ga, La",2,0.0,Tetragonal,130,P4/ncc,0.0,False,True,0.34372727197590824
mp-672256,Y5Ga3,"Ga, Y",2,0.01638631367187493,Tetragonal,130,P4/ncc,0.0,False,True,0.285632521782797
mp-568404,Li9Al4,"Al, Li",2,0.0,Monoclinic,12,C2/m,0.0,False,True,0.29076923076923084
mp-568746,Bi2Pd,"Bi, Pd",2,0.0,Monoclinic,12,C2/m,0.0,False,True,0.08485281374238578
mp-571060,In9Pt13,"In, Pt",2,0.049124047272719906,Monoclinic,12,C2/m,0.0,False,True,0.24583304150890825
mp-1185956,MgSc2,"Mg, Sc",2,0.029343626666667788,Monoclinic,12,C2/m,0.0,True,True,0.023570226039551605
mp-30410,Mn2Au5,"Au, Mn",2,0.014431074999997406,Monoclinic,12,C2/m,0.0,False,True,0.4472364119380994
mp-1185912,MgIn2,"In, Mg",2,0.024073979629630315,Monoclinic,12,C2/m,0.0,True,True,0.22156012477178486
mp-1072744,Hf2Bi,"Bi, Hf",2,0.006848357222224877,Monoclinic,12,C2/m,0.0,True,True,0.33941125496954283
mp-21589,Ga9Ni13,"Ga, Ni",2,0.0,Monoclinic,12,C2/m,0.0,False,True,0.04916660830178161
mp-1038767,MgCd,"Cd, Mg",2,0.03818579500000041,Monoclinic,12,C2/m,0.0,True,True,0.18999999999999995
mp-1094168,LaMg2,"La, Mg",2,0.07886855916666713,Monoclinic,12,C2/m,0.0,True,True,0.09899494936611664
mp-1094776,Mg2Cd,"Cd, Mg",2,0.039833586944445054,Monoclinic,12,C2/m,0.0,True,True,0.179133717900592
mp-1223890,In4Pb,"In, Pb",2,0.008507498000000169,Monoclinic,12,C2/m,0.0,True,True,0.22000000000000003
mp-1094317,Sr2Mg,"Mg, Sr",2,0.06160184333333296,Monoclinic,12,C2/m,0.0,True,True,0.16970562748477144
mp-1094503,Mg2Zn,"Mg, Zn",2,0.058884221533333614,Monoclinic,12,C2/m,0.0,True,True,0.1602775370689507
mp-1188069,Zr2Ni7,"Ni, Zr",2,0.0038042649999994183,Monoclinic,12,C2/m,0.0,False,True,0.2411290315920984
mp-13447,Zn13Rh,"Rh, Zn",2,0.0,Monoclinic,12,C2/m,0.0,False,True,0.1622498073958795
mp-1094351,MgTi2,"Mg, Ti",2,0.07179546611110954,Monoclinic,12,C2/m,0.0,True,True,0.10842303978193728
mp-1039204,MgCd2,"Cd, Mg",2,0.05930486555555703,Monoclinic,12,C2/m,0.0,True,True,0.179133717900592
mp-1094239,MgSn2,"Mg, Sn",2,0.07190916583333351,Monoclinic,12,C2/m,0.0,True,True,0.30641293851417056
mp-641509,In9Ni13,"In, Ni",2,0.06179680954545219,Monoclinic,12,C2/m,0.0,False,True,0.06391659079231612
mp-1221957,MgIn,"In, Mg",2,0.009199702777777485,Monoclinic,12,C2/m,0.0,True,True,0.235
mp-567207,SrIn4,"In, Sr",2,0.007084296222223063,Monoclinic,12,C2/m,0.0,False,True,0.3320000000000001
mp-1185838,Mg5Pt,"Mg, Pt",2,0.09478724388888882,Monoclinic,12,C2/m,0.0,True,True,0.3614976563624659
mp-973455,LiMg2,"Li, Mg",2,0.010646323333333818,Monoclinic,12,C2/m,0.0,True,True,0.1555634918610405
mp-1038896,MgBi2,"Bi, Mg",2,0.0721586866666657,Monoclinic,12,C2/m,0.0,True,True,0.3346972097616324
mp-1094646,MgGa2,"Ga, Mg",2,0.09184321333333312,Monoclinic,12,C2/m,0.0,True,True,0.23570226039551584