material_id,formula,elements,num_elements,energy_above_hull,crystal_system,spacegroup_number,spacegroup_symbol,band_gap,theoretical,is_metal,electronegativity_difference
mp-981214,SrMg5,"Mg, Sr",2,0.024427177500000008,Hexagonal,191,P6/mmm,0.0,True,True,0.13416407864998742
mp-571353,BaSn5,"Ba, Sn",2,0.026217794166670583,Hexagonal,191,P6/mmm,0.0,False,True,0.3987654559874625
mp-11472,SrHg2,"Hg, Sr",2,0.0031802333333292854,Hexagonal,191,P6/mmm,0.0,False,True,0.4949747468305833
mp-11287,CaHg2,"Ca, Hg",2,0.0,Hexagonal,191,P6/mmm,0.0,False,True,0.4714045207910317
mp-1331,YCd2,"Cd, Y",2,0.0,Hexagonal,191,P6/mmm,0.0,True,True,0.22156012477178486
mp-570832,SrPt5,"Pt, Sr",2,0.0,Hexagonal,191,P6/mmm,0.0,False,True,0.49566173501245336
mp-11280,TiBe12,"Be, Ti",2,0.08558260846153765,Hexagonal,191,P6/mmm,0.0,False,True,0.007994080650317903
mp-11385,YFe5,"Fe, Y",2,0.0,Hexagonal,191,P6/mmm,0.0,False,True,0.22733357771247867
mp-1008568,ZrTi2,"Ti, Zr",2,0.03777308388888656,Hexagonal,191,P6/mmm,0.0,True,True,0.09899494936611664
mp-30363,BaAu2,"Au, Ba",2,0.0,Hexagonal,191,P6/mmm,0.0,False,True,0.7778174593052023
mp-20536,CoSn,"Co, Sn",2,0.0,Hexagonal,191,P6/mmm,0.0,False,True,0.040000000000000036
mp-680434,Na26Cd141,"Cd, Na",2,0.0,Hexagonal,191,P6/mmm,0.0,False,True,0.27554551814245887
mp-1882,CaCu5,"Ca, Cu",2,0.0,Hexagonal,191,P6/mmm,0.0,False,True,0.3354101966249684
mp-30481,CaPt5,"Ca, Pt",2,0.0,Hexagonal,191,P6/mmm,0.0,False,True,0.47702783519995506
mp-1731,LaCo5,"Co, La",2,0.03345996532608808,Hexagonal,191,P6/mmm,0.0,False,True,0.2906888370749726
mp-30725,YHg2,"Hg, Y",2,0.0,Hexagonal,191,P6/mmm,0.0,False,True,0.36769552621700474
mp-2152,YNi5,"Ni, Y",2,0.0,Hexagonal,191,P6/mmm,0.0,False,True,0.2571478174124758
mp-2726,SrCu5,"Cu, Sr",2,0.0,Hexagonal,191,P6/mmm,0.0,False,True,0.3540440964374667
mp-11267,BaHg2,"Ba, Hg",2,0.0,Hexagonal,191,P6/mmm,0.0,True,True,0.5232590180780452
mp-1814,BaAg5,"Ag, Ba",2,0.0,Hexagonal,191,P6/mmm,0.0,False,True,0.38758511609996354
mp-2613,LaCu5,"Cu, La",2,0.0,Hexagonal,191,P6/mmm,0.0,False,True,0.2981423969999719
mp-2317,LaNi5,"La, Ni",2,0.0,Hexagonal,191,P6/mmm,0.0,False,True,0.30186917696247156
mp-11283,ZrBe5,"Be, Zr",2,0.0,Hexagonal,191,P6/mmm,0.0,False,True,0.08944271909999157
mp-182,SrGa2,"Ga, Sr",2,0.0,Hexagonal,191,P6/mmm,0.0,False,True,0.4054078878802873
mp-2424,LaZn5,"La, Zn",2,0.003247978166665888,Hexagonal,191,P6/mmm,0.0,False,True,0.20497289793748064
mp-1252,ZrBe2,"Be, Zr",2,0.028948296666665208,Hexagonal,191,P6/mmm,0.0,False,True,0.11313708498984759
mp-2797,YCu5,"Cu, Y",2,0.0,Hexagonal,191,P6/mmm,0.0,False,True,0.2534210374499761
mp-2051,LaCu2,"Cu, La",2,0.0,Hexagonal,191,P6/mmm,0.0,False,True,0.37712361663282523
mp-2410,SrAg5,"Ag, Sr",2,0.0,Hexagonal,191,P6/mmm,0.0,False,True,0.36522443632496565
mp-1219,BaGa2,"Ba, Ga",2,0.0,Hexagonal,191,P6/mmm,0.0,False,True,0.43369215912774917
mp-774,CaNi5,"Ca, Ni",2,0.0004997670833333245,Hexagonal,191,P6/mmm,0.0,False,True,0.33913697658746805
mp-1206486,SrIn5,"In, Sr",2,0.08723946740740729,Hexagonal,191,P6/mmm,0.0,True,True,0.3093227368874709
mp-570673,ScNi5,"Ni, Sc",2,0.008523272916668212,Hexagonal,191,P6/mmm,0.0,False,True,0.20497289793748064
mp-1914,YGa2,"Ga, Y",2,0.0,Hexagonal,191,P6/mmm,0.0,False,True,0.2781286672667087
mp-1025223,Hf4Al3,"Al, Hf",2,0.0,Hexagonal,191,P6/mmm,0.0,False,True,0.153410214384672
mp-11466,NaHg2,"Hg, Na",2,0.0,Hexagonal,191,P6/mmm,0.0,False,True,0.5044028372464039
mp-19839,LaGa2,"Ga, La",2,0.0,Hexagonal,191,P6/mmm,0.0,False,True,0.3346972097616324
mp-2606,BaPd5,"Ba, Pd",2,0.0,Hexagonal,191,P6/mmm,0.0,False,True,0.4882081750874542
mp-638,SrZn5,"Sr, Zn",2,0.024680062499999877,Hexagonal,191,P6/mmm,0.0,False,True,0.2608745973749754
mp-11565,YRh5,"Rh, Y",2,0.08311612055555528,Hexagonal,191,P6/mmm,0.0,False,True,0.3950386760249628
mp-1734,CaZn5,"Ca, Zn",2,0.0,Hexagonal,191,P6/mmm,0.0,False,True,0.24224069756247718
mp-1298,KAu5,"Au, K",2,0.0,Hexagonal,191,P6/mmm,0.0,False,True,0.6410061535499397
mp-442,RhPb,"Pb, Rh",2,0.0,Hexagonal,191,P6/mmm,0.0,False,True,0.025000000000000133
mp-30469,TlBi2,"Bi, Tl",2,0.0,Hexagonal,191,P6/mmm,0.0,False,True,0.18856180831641262
mp-11463,LaHg2,"Hg, La",2,0.0,Hexagonal,191,P6/mmm,0.0,False,True,0.42426406871192845
mp-19876,InNi,"In, Ni",2,0.0,Hexagonal,191,P6/mmm,0.0,False,True,0.06499999999999995
mp-21260,FeSn,"Fe, Sn",2,0.0,Hexagonal,191,P6/mmm,0.0,False,True,0.06499999999999995
mp-1260,SrPd5,"Pd, Sr",2,0.0,Hexagonal,191,P6/mmm,0.0,False,True,0.4658474953124563
mp-1832,LaPt5,"La, Pt",2,0.0,Hexagonal,191,P6/mmm,0.0,False,True,0.4397600355749585
mp-728,Li2Pd,"Li, Pd",2,0.0,Hexagonal,191,P6/mmm,0.0,False,True,0.5751135153650587
mp-992,CaGa2,"Ca, Ga",2,0.016981658333333982,Hexagonal,191,P6/mmm,0.0,False,True,0.3818376618407357
mp-1831,SrAu5,"Au, Sr",2,0.0,Hexagonal,191,P6/mmm,0.0,False,True,0.5925580140374443
mp-11277,ScBe5,"Be, Sc",2,0.0,Hexagonal,191,P6/mmm,0.0,False,True,0.07826237921249263
mp-811,BaPt5,"Ba, Pt",2,0.0,Hexagonal,191,P6/mmm,0.0,False,True,0.5180224147874511
mp-1209,RbAu5,"Au, Rb",2,0.0,Hexagonal,191,P6/mmm,0.0,False,True,0.6410061535499397
mp-12055,LaCd2,"Cd, La",2,0.0,Hexagonal,191,P6/mmm,0.0,True,True,0.2781286672667086
mp-30885,YZn5,"Y, Zn",2,0.0,Hexagonal,191,P6/mmm,0.0,False,True,0.1602515383874849
mp-2170,Li2Pt,"Li, Pt",2,0.0,Hexagonal,191,P6/mmm,0.0,False,True,0.6128258770283411
mp-30364,BaAu5,"Au, Ba",2,0.0,Hexagonal,191,P6/mmm,0.0,False,True,0.6149186938124421
mp-1241,BaAg2,"Ag, Ba",2,0.0,Hexagonal,191,P6/mmm,0.0,True,True,0.4902607016226729
mp-30753,LaPd5,"La, Pd",2,0.0,Hexagonal,191,P6/mmm,0.0,False,True,0.40994579587496144
mp-2827,YCo5,"Co, Y",2,0.011988457820512721,Hexagonal,191,P6/mmm,0.0,False,True,0.24596747752497686
mp-11826,CaPd5,"Ca, Pd",2,0.0,Hexagonal,191,P6/mmm,0.0,False,True,0.44721359549995804
mp-2553,HfBe2,"Be, Hf",2,0.012765049333336442,Hexagonal,191,P6/mmm,0.0,False,True,0.12727922061357858
mp-1606,NbAu2,"Au, Nb",2,0.0,Hexagonal,191,P6/mmm,0.0,False,True,0.44312024954356977
mp-2025,HfBe5,"Be, Hf",2,0.0,Hexagonal,191,P6/mmm,0.0,False,True,0.10062305898749055
mp-1384,LaIr5,"Ir, La",2,0.06472783666666793,Hexagonal,191,P6/mmm,0.0,False,True,0.40994579587496144
mp-12752,Zr4Al3,"Al, Zr",2,0.0,Hexagonal,191,P6/mmm,0.0,False,True,0.13856406460551018
mp-1189573,Hf5Ir3,"Hf, Ir",2,0.013379535624993721,Hexagonal,193,P6_3/mcm,0.0,False,True,0.4357106264483344
mp-1190304,V5Ga3,"Ga, V",2,0.08278061909722112,Hexagonal,193,P6_3/mcm,0.0,False,True,0.08714212528966696
mp-1812,Hg5Au6,"Au, Hg",2,0.0,Hexagonal,193,P6_3/mcm,0.0,False,True,0.2688819827752634
mp-30407,Mg13Au41,"Au, Mg",2,0.0,Hexagonal,193,P6_3/mcm,0.0,False,True,0.5258658351169144
mp-510521,Y5Ga3,"Ga, Y",2,0.03427095898437571,Hexagonal,193,P6_3/mcm,0.0,False,True,0.285632521782797
mp-29620,Sr5Bi3,"Bi, Sr",2,0.00014172718749705382,Hexagonal,193,P6_3/mcm,0.0,False,True,0.518011522555242
mp-1188953,Zr5Pt3,"Pt, Zr",2,4.6259374997248415e-05,Hexagonal,193,P6_3/mcm,0.0,False,True,0.45991677236213063
mp-20847,Ti5Sn3,"Sn, Ti",2,0.0,Hexagonal,193,P6_3/mcm,0.0,False,True,0.20333162567588936
mp-11465,Mg5Hg3,"Hg, Mg",2,0.0,Hexagonal,193,P6_3/mcm,0.0,False,True,0.3340448136103897
mp-567412,Y5Sn3,"Sn, Y",2,0.0,Hexagonal,193,P6_3/mcm,0.0,False,True,0.358250959524186
mp-510691,Hf5Sn4,"Hf, Sn",2,0.0,Hexagonal,193,P6_3/mcm,0.0,False,True,0.32795663669996916
mp-18032,Nb5Ga4,"Ga, Nb",2,0.021052528412699445,Hexagonal,193,P6_3/mcm,0.0,False,True,0.10434983894999017
mp-1188292,Y5Pb3,"Pb, Y",2,0.0,Hexagonal,193,P6_3/mcm,0.0,False,True,0.5373764392862792
mp-30675,Ti5Ga4,"Ga, Ti",2,0.011488576388890337,Hexagonal,193,P6_3/mcm,0.0,False,True,0.1341640786499874
mp-1105908,La5Sn3,"La, Sn",2,0.001225076874999509,Hexagonal,193,P6_3/mcm,0.0,False,True,0.41634570971729723
mp-1106169,Zr5Ga3,"Ga, Zr",2,0.0,Hexagonal,193,P6_3/mcm,0.0,False,True,0.232379000772445
mp-1188697,Zr5Ir3,"Ir, Zr",2,0.011442138333336516,Hexagonal,193,P6_3/mcm,0.0,False,True,0.42118693890005665
mp-1105962,La5Bi3,"Bi, La",2,0.011194366874999417,Hexagonal,193,P6_3/mcm,0.0,False,True,0.4453930848138529
mp-1178742,Y5Al3,"Al, Y",2,0.046138881979167934,Hexagonal,193,P6_3/mcm,0.0,True,True,0.18880793812761165
mp-681992,Zr5Pb3,"Pb, Zr",2,0.0,Hexagonal,193,P6_3/mcm,0.0,False,True,0.4841229182759271
mp-1105896,La5Pb3,"La, Pb",2,0.0,Hexagonal,193,P6_3/mcm,0.0,False,True,0.5954711894793904
mp-21104,Hf5Sn3,"Hf, Sn",2,0.0,Hexagonal,193,P6_3/mcm,0.0,False,True,0.31952112606211186
mp-30674,Ti5Ga3,"Ga, Ti",2,0.017191530000000732,Hexagonal,193,P6_3/mcm,0.0,False,True,0.13071318793450032
mp-2044,Zr5Al3,"Al, Zr",2,0.05857804675000011,Hexagonal,193,P6_3/mcm,0.0,False,True,0.1355544171172596
mp-510209,Sc5Pb3,"Pb, Sc",2,0.0,Hexagonal,193,P6_3/mcm,0.0,False,True,0.4695992307276493
mp-17332,Sc5Ga3,"Ga, Sc",2,0.016303211562499698,Hexagonal,193,P6_3/mcm,0.0,False,True,0.21785531322416718
mp-1188336,Zr5Ga4,"Ga, Zr",2,0.04662204388888824,Hexagonal,193,P6_3/mcm,0.0,False,True,0.23851391759997756
mp-1189119,Y5Ir3,"Ir, Y",2,0.04033945156250063,Hexagonal,193,P6_3/mcm,0.0,False,True,0.4744404599104087
mp-543001,Zr5Sn4,"Sn, Zr",2,0.0,Hexagonal,193,P6_3/mcm,0.0,False,True,0.3130495168499705
mp-1207392,Zr5Bi3,"Bi, Zr",2,0.008827140729168015,Hexagonal,193,P6_3/mcm,0.0,True,True,0.3340448136103897
mp-17695,Sc5Sn3,"Sc, Sn",2,0.0,Hexagonal,193,P6_3/mcm,0.0,False,True,0.2904737509655562
mp-29621,Ba5Bi3,"Ba, Bi",2,0.0,Hexagonal,193,P6_3/mcm,0.0,False,True,0.5470588976517976
mp-1178745,Y5Pt3,"Pt, Y",2,0.03918396125000356,Hexagonal,193,P6_3/mcm,0.0,False,True,0.5131702933724827
mp-1188434,Y5Tl3,"Tl, Y",2,0.0,Hexagonal,193,P6_3/mcm,0.0,False,True,0.1936491673103709
mp-1182146,Ca5Pb3,"Ca, Pb",2,0.021904420624998533,Hexagonal,193,P6_3/mcm,0.0,False,True,0.6438834813069831
mp-510522,Zr5Sn3,"Sn, Zr",2,0.0,Hexagonal,193,P6_3/mcm,0.0,False,True,0.304997438513834
mp-1105552,Nb5Ga3,"Ga, Nb",2,0.09599821468750136,Hexagonal,193,P6_3/mcm,0.0,False,True,0.10166581283794468
mp-1209003,Sc5Ru3,"Ru, Sc",2,0.012595775535714893,Hexagonal,193,P6_3/mcm,0.0,True,True,0.4066632513517788
mp-30668,Ta5Ga3,"Ga, Ta",2,0.09482109343749556,Hexagonal,193,P6_3/mcm,0.0,False,True,0.15007810466553742
mp-22337,Hf5Ga3,"Ga, Hf",2,0.0,Hexagonal,193,P6_3/mcm,0.0,False,True,0.24690268832072285
mp-2361,Hf5Al3,"Al, Hf",2,0.05034572312500174,Hexagonal,193,P6_3/mcm,0.0,False,True,0.15007810466553742
mp-570774,Zr5Al4,"Al, Zr",2,0.06264073966666217,Hexagonal,193,P6_3/mcm,0.0,False,True,0.13913311859998692
mp-1023493,LiMg15,"Li, Mg",2,0.012462442812499752,Hexagonal,187,P-6m2,0.0,True,True,0.07988028151552799
mp-1226447,Co3Ir,"Co, Ir",2,0.05958649749999978,Hexagonal,187,P-6m2,0.0,True,True,0.13856406460551032
mp-1016271,Mg7Al,"Al, Mg",2,0.0440440027604172,Hexagonal,187,P-6m2,0.0,True,True,0.09921567416492216
mp-1023495,Mg15Bi,"Bi, Mg",2,0.04478293515624987,Hexagonal,187,P-6m2,0.0,True,True,0.17186363598795412
mp-1217407,Tc3Os,"Os, Tc",2,0.016334711249996303,Hexagonal,187,P-6m2,0.0,True,True,0.1299038105676659
mp-1228287,Ba7Cd31,"Ba, Cd",2,0.0,Hexagonal,187,P-6m2,0.0,True,True,0.3101246286874996
mp-1224131,K7Hg31,"Hg, K",2,0.008818070986841064,Hexagonal,187,P-6m2,0.0,True,True,0.45743382731406207
mp-1023489,Mg15Cd,"Cd, Mg",2,0.033851813749999904,Hexagonal,187,P-6m2,0.0,True,True,0.09198335447242613
mp-1094450,Mg5Zn,"Mg, Zn",2,0.08413968910000036,Hexagonal,187,P-6m2,0.0,True,True,0.12671051872498804
mp-1185885,MgHg5,"Hg, Mg",2,0.0601439033333282,Hexagonal,187,P-6m2,0.0,True,True,0.2571478174124758
mp-978251,CsMg149,"Cs, Mg",2,0.022718865547126654,Hexagonal,187,P-6m2,0.0,True,True,0.04231605946787684
mp-1094245,MgSn5,"Mg, Sn",2,0.0945169945833344,Hexagonal,187,P-6m2,0.0,True,True,0.24224069756247718
mp-1226878,Cd3Hg,"Cd, Hg",2,0.03980610062500034,Hexagonal,187,P-6m2,0.0,True,True,0.13423393758658803
mp-1228901,AlAg,"Ag, Al",2,0.01833040100000005,Hexagonal,187,P-6m2,0.0,True,True,0.15999999999999992
mp-1223757,In2Bi,"Bi, In",2,0.07930772611111081,Hexagonal,187,P-6m2,0.0,True,True,0.11313708498984759
mp-1094850,MgGa,"Ga, Mg",2,0.0548177299999999,Hexagonal,187,P-6m2,0.0,True,True,0.25
mp-1016274,LiMg7,"Li, Mg",2,0.015689256875000446,Hexagonal,187,P-6m2,0.0,True,True,0.1091372415814144
mp-1016284,Mg7Zr,"Mg, Zr",2,0.08446239812500034,Hexagonal,187,P-6m2,0.0,True,True,0.006614378277661482
mp-1215893,YSc,"Sc, Y",2,0.09649996749999978,Hexagonal,187,P-6m2,0.0,True,True,0.07000000000000006
mp-1039026,Mg2Cd,"Cd, Mg",2,0.0882556902777778,Hexagonal,187,P-6m2,0.0,True,True,0.179133717900592
mp-1185565,Mg149Mo,"Mg, Mo",2,0.01599073316666688,Hexagonal,187,P-6m2,0.14220000000000033,True,False,0.069170481822491
mp-1183209,AgPt,"Ag, Pt",2,0.0,Hexagonal,187,P-6m2,0.0,True,True,0.17499999999999993
mp-1023499,NaMg15,"Mg, Na",2,0.05284709700170698,Hexagonal,187,P-6m2,0.0,True,True,0.09198335447242614
mp-1094882,MgZr,"Mg, Zr",2,0.07827781249999965,Hexagonal,187,P-6m2,0.0,True,True,0.010000000000000009
mp-1094725,MgSn3,"Mg, Sn",2,0.06979472687499921,Hexagonal,187,P-6m2,0.0,True,True,0.2814582562299425
mp-1016252,Mg7Ga,"Ga, Mg",2,0.04527670625000013,Hexagonal,187,P-6m2,0.0,True,True,0.16535945694153692
mp-1039175,MgCd2,"Cd, Mg",2,0.09146356388888965,Hexagonal,187,P-6m2,0.0,True,True,0.179133717900592
mp-1217422,TcRh,"Rh, Tc",2,0.007859920000001352,Hexagonal,187,P-6m2,0.0,True,True,0.18999999999999995
mp-1185582,Mg149Rh,"Mg, Rh",2,0.008088754704762113,Hexagonal,187,P-6m2,0.04380000000000006,True,False,0.07893572631507792
mp-1185637,Mg149Sn,"Mg, Sn",2,0.0028761187666670462,Hexagonal,187,P-6m2,0.41559999999999997,True,False,0.05289507433484604
mp-1023624,Mg15Co,"Co, Mg",2,0.06563202109374977,Hexagonal,187,P-6m2,0.0,True,True,0.1379750317086392
mp-1226170,CrRh,"Cr, Rh",2,0.07618801833333322,Hexagonal,187,P-6m2,0.0,True,True,0.30999999999999994
mp-1185513,HfMg149,"Hf, Mg",2,0.010514266100000613,Hexagonal,187,P-6m2,0.04809999999999981,True,False,0.0008137703743822477
mp-1023616,Mg15Zn,"Mg, Zn",2,0.04593213716250033,Hexagonal,187,P-6m2,0.0,True,True,0.08230089610690758
mp-1185557,Mg149Bi,"Bi, Mg",2,0.005512710616666805,Hexagonal,187,P-6m2,0.2863000000000002,True,False,0.05777769658113953
mp-1094581,LiMg2,"Li, Mg",2,0.038651308333333745,Hexagonal,187,P-6m2,0.0,True,True,0.1555634918610405
mp-1094580,LiMg,"Li, Mg",2,0.04446933249999985,Hexagonal,187,P-6m2,0.0,True,True,0.16500000000000004
mp-1185555,Mg149Ru,"Mg, Ru",2,0.008220431941666773,Hexagonal,187,P-6m2,0.06449999999999978,True,False,0.07242556332001998
mp-1219509,ReOs,"Os, Re",2,0.0,Hexagonal,187,P-6m2,0.0,True,True,0.15000000000000013
mp-1185585,Mg149Cr,"Cr, Mg",2,0.010655343366666736,Hexagonal,187,P-6m2,0.029799999999999827,True,False,0.02848196310337863
mp-1023511,SrMg15,"Mg, Sr",2,0.08724788218750001,Hexagonal,187,P-6m2,0.0,True,True,0.0871421252896669
mp-1185573,Mg149Au,"Au, Mg",2,0.0063764465111113555,Hexagonal,187,P-6m2,0.5615000000000001,True,False,0.10009375604901637
mp-1187343,RbMg149,"Mg, Rb",2,0.01783127618333369,Hexagonal,187,P-6m2,0.021800000000000264,True,False,0.03987474834473011
mp-1224795,GaAg3,"Ag, Ga",2,0.013728922083330986,Hexagonal,187,P-6m2,0.0,True,True,0.05196152422706627
mp-1183602,CaLa,"Ca, La",2,0.07566383749999872,Hexagonal,187,P-6m2,0.0,True,True,0.050000000000000044
mp-1186779,PtAu,"Au, Pt",2,0.028669980000003648,Hexagonal,187,P-6m2,0.0,True,True,0.13000000000000012
mp-1023560,LaMg15,"La, Mg",2,0.07239866750000012,Hexagonal,187,P-6m2,0.0,True,True,0.05083290641897234
mp-1219539,Re3Rh,"Re, Rh",2,0.08137903624999865,Hexagonal,187,P-6m2,0.0,True,True,0.1645448267190433
mp-1185913,MgIn2,"In, Mg",2,0.028899219629629602,Hexagonal,187,P-6m2,0.0,True,True,0.22156012477178486
mp-1185636,Mg149Tc,"Mg, Tc",2,0.01131422586666675,Hexagonal,187,P-6m2,0.09779999999999989,True,False,0.04801245208855256
mp-1016253,Mg7Cd,"Cd, Mg",2,0.03158872624999942,Hexagonal,187,P-6m2,0.0,True,True,0.12567318727556803
mp-1185580,Mg149Pd,"Mg, Pd",2,0.006378751344444877,Hexagonal,187,P-6m2,0.013700000000000045,True,False,0.07242556332001998
mp-1228441,Ba7Hg31,"Ba, Hg",2,0.015648851973691036,Hexagonal,187,P-6m2,0.016999999999999904,True,False,0.4302979223039058
mp-1094610,Mg2Ga,"Ga, Mg",2,0.08209644611111067,Hexagonal,187,P-6m2,0.0,True,True,0.23570226039551584
mp-1185600,Mg149Os,"Mg, Os",2,0.009913563566666728,Hexagonal,187,P-6m2,0.07750000000000012,True,False,0.07242556332001998
mp-1185631,Mg149Sc,"Mg, Sc",2,0.004229904533333606,Hexagonal,187,P-6m2,0.27639999999999976,True,False,0.004068851871911238
mp-1217363,TcRu,"Ru, Tc",2,0.0,Hexagonal,187,P-6m2,0.0,True,True,0.15000000000000013
mp-1023610,Mg15Cu,"Cu, Mg",2,0.051874443750000054,Hexagonal,187,P-6m2,0.0,True,True,0.14281626089139846
mp-1224258,HfTi,"Hf, Ti",2,0.06046461666666403,Hexagonal,187,P-6m2,0.0,True,True,0.12
mp-1023508,CaMg15,"Ca, Mg",2,0.05707289499999968,Hexagonal,187,P-6m2,0.0,True,True,0.07503905233276871
mp-1185575,Mg149Ir,"Ir, Mg",2,0.008856918304762207,Hexagonal,187,P-6m2,0.05380000000000029,True,False,0.07242556332001998
mp-1187978,ZnCo,"Co, Zn",2,0.09491630704545528,Hexagonal,187,P-6m2,0.0,True,True,0.11499999999999999
mp-1185999,MgPb2,"Mg, Pb",2,0.036564321666666455,Hexagonal,187,P-6m2,0.0,True,True,0.4808326112068523
mp-1227382,Be8Ru,"Be, Ru",2,0.09296127194444459,Hexagonal,187,P-6m2,0.0,True,True,0.19798989873223333
mp-1016277,YMg7,"Mg, Y",2,0.05746055999999955,Hexagonal,187,P-6m2,0.0,True,True,0.02976470224947667
mp-1216325,VGa,"Ga, V",2,0.09081238812500025,Hexagonal,187,P-6m2,0.0,True,True,0.09000000000000008
mp-1023502,Mg15Nb,"Mg, Nb",2,0.09907729531250009,Hexagonal,187,P-6m2,0.0,True,True,0.07019782315000944
mp-1039434,Mg5Cd,"Cd, Mg",2,0.07188611333333328,Hexagonal,187,P-6m2,0.0,True,True,0.14161763857498663
mp-1185579,Mg149Hg,"Hg, Mg",2,0.0028406420333335625,Hexagonal,187,P-6m2,0.5756000000000001,True,False,0.05615015583237503
mp-1094590,Li5Mg,"Li, Mg",2,0.011561318055556047,Hexagonal,187,P-6m2,0.0,True,True,0.12298373876248846
mp-1185640,Mg149Ta,"Mg, Ta",2,0.01662620938444448,Hexagonal,187,P-6m2,0.23819999999999997,True,False,0.015461637113262686
mp-1221386,MoRu,"Mo, Ru",2,0.09995914916666493,Hexagonal,187,P-6m2,0.0,True,True,0.020000000000000018
mp-1185642,Mg149Zn,"Mg, Zn",2,0.003682251364000022,Hexagonal,187,P-6m2,0.5787,True,False,0.027668192728996382
mp-1188082,YMg149,"Mg, Y",2,0.005703300333333772,Hexagonal,187,P-6m2,0.2634999999999996,True,False,0.007323933369440229
mp-1226718,CdAu,"Au, Cd",2,0.08156649055555931,Hexagonal,187,P-6m2,0.0,True,True,0.42500000000000004
mp-2744,LiPd,"Li, Pd",2,0.0,Hexagonal,187,P-6m2,0.0,False,True,0.6100000000000001
mp-1094631,Mg5Ga,"Ga, Mg",2,0.07961750666666623,Hexagonal,187,P-6m2,0.0,True,True,0.18633899812498247
mp-1221628,MnFe3,"Fe, Mn",2,0.06564907301724254,Hexagonal,187,P-6m2,0.0,True,True,0.12124355652982143
mp-1023503,Mg15Ga,"Ga, Mg",2,0.0413441956249998,Hexagonal,187,P-6m2,0.0,True,True,0.12103072956898178
mp-1217409,TcIr,"Ir, Tc",2,0.0,Hexagonal,187,P-6m2,0.0,True,True,0.15000000000000013
mp-1094854,Mg3Ga,"Ga, Mg",2,0.08080617499999954,Hexagonal,187,P-6m2,0.0,True,True,0.21650635094610965
mp-1185599,Mg149Ni,"Mg, Ni",2,0.008654826255555914,Hexagonal,187,P-6m2,0.014399999999999746,True,False,0.048826222462934804
mp-1023608,Mg15Ti,"Mg, Ti",2,0.0755990651041667,Hexagonal,187,P-6m2,0.0,True,True,0.055674135601731616
mp-1094982,LiMg,"Li, Mg",2,0.03373928250000002,Hexagonal,187,P-6m2,0.0,True,True,0.16500000000000004
mp-976828,MgPb3,"Mg, Pb",2,0.012108977500000062,Hexagonal,187,P-6m2,0.0,True,True,0.4416729559300637
mp-1094618,MgGa5,"Ga, Mg",2,0.08244146729166646,Hexagonal,187,P-6m2,0.0,True,True,0.18633899812498245
mp-1185641,Mg149V,"Mg, V",2,0.011510745100000275,Hexagonal,187,P-6m2,0.0794999999999999,True,False,0.026040651980231887
mp-1016276,CaMg7,"Ca, Mg",2,0.06972711624999972,Hexagonal,187,P-6m2,0.0,True,True,0.1025228633037529
mp-1219533,ReIr,"Ir, Re",2,0.0,Hexagonal,187,P-6m2,0.0,True,True,0.15000000000000013
mp-1221418,MoOs,"Mo, Os",2,0.0781854949999996,Hexagonal,187,P-6m2,0.0,True,True,0.020000000000000018
mp-1222288,LiZn3,"Li, Zn",2,0.07867145124999997,Hexagonal,187,P-6m2,0.0,True,True,0.2901185102677869
mp-1215518,ZnCu3,"Cu, Zn",2,0.02395035000000023,Hexagonal,187,P-6m2,0.0,True,True,0.10825317547305482