material_id,formula,elements,num_elements,energy_above_hull,crystal_system,spacegroup_number,spacegroup_symbol,band_gap,theoretical,is_metal,electronegativity_difference,atomic_concentrations
mp-1078544,Sc2InCu2,"Cu, In, Sc",3,0.0,Tetragonal,127,P4/mbm,0.0,False,True,0.24883729623993256,Sc: 0.4000; In: 0.2000; Cu: 0.4000
mp-1079508,Y2InCu2,"Cu, In, Y",3,0.0,Tetragonal,127,P4/mbm,0.0,False,True,0.3165817429985501,Y: 0.4000; In: 0.2000; Cu: 0.4000
mp-1205864,Y2CdCu2,"Cd, Cu, Y",3,0.0,Tetragonal,127,P4/mbm,0.0,True,True,0.30851904317237855,Y: 0.4000; Cd: 0.2000; Cu: 0.4000
mp-1205518,Y2MgPd2,"Mg, Pd, Y",3,0.007899107000000072,Tetragonal,127,P4/mbm,0.0,True,True,0.46656189300027506,Y: 0.4000; Mg: 0.2000; Pd: 0.4000
mp-1095144,La2InNi2,"In, La, Ni",3,0.008664282999999884,Tetragonal,127,P4/mbm,0.0,False,True,0.37857628029236057,La: 0.4000; In: 0.2000; Ni: 0.4000
mp-1079933,Y2InAu2,"Au, In, Y",3,0.0,Tetragonal,127,P4/mbm,0.0,False,True,0.5916755867872191,Y: 0.4000; In: 0.2000; Au: 0.4000
mp-4952,La2MgNi2,"La, Mg, Ni",3,0.0,Tetragonal,127,P4/mbm,0.0,False,True,0.3705455437594682,La: 0.4000; Mg: 0.2000; Ni: 0.4000
mp-1087240,La2InPd2,"In, La, Pd",3,0.0,Tetragonal,127,P4/mbm,0.0,False,True,0.4946756513110384,La: 0.4000; In: 0.2000; Pd: 0.4000
mp-1207248,La2CdAu2,"Au, Cd, La",3,0.0,Tetragonal,127,P4/mbm,0.0,True,True,0.6460835859236791,La: 0.4000; Cd: 0.2000; Au: 0.4000
mp-1206250,La2CdPd2,"Cd, La, Pd",3,0.0,Tetragonal,127,P4/mbm,0.0,True,True,0.4921950832749145,La: 0.4000; Cd: 0.2000; Pd: 0.4000
mp-1211217,Li6Al13Cu8,"Al, Cu, Li",3,0.0,Tetragonal,127,P4/mbm,0.0,True,True,0.33195558894459065,Li: 0.2222; Al: 0.4815; Cu: 0.2963
mp-1191038,LaIn2Ni9,"In, La, Ni",3,0.0,Tetragonal,127,P4/mbm,0.0,False,True,0.22257801378892345,La: 0.0833; In: 0.1667; Ni: 0.7500
mp-21508,Y2Pd2Pb,"Pb, Pd, Y",3,0.0,Tetragonal,127,P4/mbm,0.0,False,True,0.5035712462005749,Y: 0.4000; Pd: 0.4000; Pb: 0.2000
mp-20146,Zr2Ni2Sn,"Ni, Sn, Zr",3,0.0238509450000004,Tetragonal,127,P4/mbm,0.0,False,True,0.2928754001277676,Zr: 0.4000; Ni: 0.4000; Sn: 0.2000
mp-754185,Y2MgNi2,"Mg, Ni, Y",3,0.0,Tetragonal,127,P4/mbm,0.0,True,True,0.32499846153482015,Y: 0.4000; Mg: 0.2000; Ni: 0.4000
mp-4901,Y2MgCu2,"Cu, Mg, Y",3,0.0,Tetragonal,127,P4/mbm,0.0,False,True,0.3201249755954696,Y: 0.4000; Mg: 0.2000; Cu: 0.4000
mp-672335,YIn2Ni9,"In, Ni, Y",3,0.0019162641666694569,Tetragonal,127,P4/mbm,0.0,False,True,0.19032683876835538,Y: 0.0833; In: 0.1667; Ni: 0.7500
mp-1198240,La5(Sn5Ir2)2,"Ir, La, Sn",3,0.0,Tetragonal,127,P4/mbm,0.0,False,True,0.4652209749737812,La: 0.4167; Sn: 0.4167; Ir: 0.1667
mp-1092301,La(GaPd)2,"Ga, La, Pd",3,0.0,Tetragonal,129,P4/nmm,0.0,False,True,0.4553631029799797,La: 0.3333; Ga: 0.3333; Pd: 0.3333
mp-636264,La(CuSn)2,"Cu, La, Sn",3,0.0,Tetragonal,129,P4/nmm,0.0,False,True,0.3920317447463774,La: 0.3333; Cu: 0.3333; Sn: 0.3333
mp-13920,Ba(ZnSn)2,"Ba, Sn, Zn",3,0.0,Tetragonal,129,P4/nmm,0.0,False,True,0.4495182606598609,Ba: 0.3333; Zn: 0.3333; Sn: 0.3333
mp-1078401,LaBi2Au,"Au, Bi, La",3,0.028522339583337164,Tetragonal,129,P4/nmm,0.0,False,True,0.5188448708429139,La: 0.2500; Bi: 0.5000; Au: 0.2500
mp-1078717,La(NiSn)2,"La, Ni, Sn",3,0.0,Tetragonal,129,P4/nmm,0.0,False,True,0.39415169104743863,La: 0.3333; Ni: 0.3333; Sn: 0.3333
mp-29622,Ba(MgSn)2,"Ba, Mg, Sn",3,0.0,Tetragonal,129,P4/nmm,0.0,False,True,0.4401767321832851,Ba: 0.3333; Mg: 0.3333; Sn: 0.3333
mp-1095149,LiLaBi2,"Bi, La, Li",3,0.0,Tetragonal,129,P4/nmm,0.0,False,True,0.4918333050943175,Li: 0.2500; La: 0.2500; Bi: 0.5000
mp-1080779,YZnSn2,"Sn, Y, Zn",3,0.011834339338235189,Tetragonal,129,P4/nmm,0.0,False,True,0.30334592464709326,Y: 0.2500; Zn: 0.2500; Sn: 0.5000
mp-773137,KCaBi,"Bi, Ca, K",3,0.0,Tetragonal,129,P4/nmm,0.8270000000000002,True,False,0.5283937925449163,K: 0.3333; Ca: 0.3333; Bi: 0.3333
mp-638690,Li2Y5In9,"In, Li, Y",3,0.0,Tetragonal,129,P4/nmm,0.0,False,True,0.31996093511552315,Li: 0.1250; Y: 0.3125; In: 0.5625
mp-2647002,NaZnBi,"Bi, Na, Zn",3,0.007647459743588492,Tetragonal,129,P4/nmm,0.0,True,True,0.45257289161219344,Na: 0.3333; Zn: 0.3333; Bi: 0.3333
mp-20452,Ba(MgPb)2,"Ba, Mg, Pb",3,0.0,Tetragonal,129,P4/nmm,0.0,False,True,0.604648658313239,Ba: 0.3333; Mg: 0.3333; Pb: 0.3333
mp-1079764,La(AlPd)2,"Al, La, Pd",3,0.0,Tetragonal,129,P4/nmm,0.0,False,True,0.4494688223027513,La: 0.3333; Al: 0.3333; Pd: 0.3333
mp-1078411,Sr(SnAu)2,"Au, Sn, Sr",3,0.0,Tetragonal,129,P4/nmm,0.0,False,True,0.6569796208576201,Sr: 0.3333; Sn: 0.3333; Au: 0.3333
mp-1087238,Y(CuSn)2,"Cu, Sn, Y",3,0.048345385666667795,Tetragonal,129,P4/nmm,0.0,False,True,0.33559234529741916,Y: 0.3333; Cu: 0.3333; Sn: 0.3333
mp-1078567,Sr(BiPd)2,"Bi, Pd, Sr",3,0.0035580519999989235,Tetragonal,129,P4/nmm,0.0,False,True,0.5517447074709664,Sr: 0.3333; Bi: 0.3333; Pd: 0.3333
mp-1019105,KMgBi,"Bi, K, Mg",3,0.0,Tetragonal,129,P4/nmm,0.38549999999999995,False,False,0.49263464036635596,K: 0.3333; Mg: 0.3333; Bi: 0.3333
mp-18142,Ca(Al5Cr)2,"Al, Ca, Cr",3,0.0012491638111828962,Tetragonal,129,P4/nmm,0.0,False,True,0.2170582541952407,Ca: 0.1429; Al: 0.7143; Cr: 0.1429
mp-1079278,Sr(AlAu)2,"Al, Au, Sr",3,0.0,Tetragonal,129,P4/nmm,0.0,False,True,0.6522269543648131,Sr: 0.3333; Al: 0.3333; Au: 0.3333
mp-12780,Sr(GaAu)2,"Au, Ga, Sr",3,0.0,Tetragonal,129,P4/nmm,0.0,False,True,0.6498375865467378,Sr: 0.3333; Ga: 0.3333; Au: 0.3333
mp-646110,Y14(InRh)3,"In, Rh, Y",3,0.0,Tetragonal,137,P4_2/nmc,0.0,False,True,0.2820876415229848,Y: 0.8750; In: 0.0625; Rh: 0.0625
mp-1188079,Zr2InNi2,"In, Ni, Zr",3,0.0025112830000022512,Tetragonal,136,P4_2/mnm,0.0,True,True,0.26716287167194464,Zr: 0.4000; In: 0.2000; Ni: 0.4000
mp-1209036,Sc2SnAu2,"Au, Sc, Sn",3,0.012245223500002567,Tetragonal,136,P4_2/mnm,0.0,True,True,0.5277272022551045,Sc: 0.4000; Sn: 0.2000; Au: 0.4000
mp-1207424,Zr2InAu2,"Au, In, Zr",3,0.0,Tetragonal,136,P4_2/mnm,0.0,True,True,0.5446687066465266,Zr: 0.4000; In: 0.2000; Au: 0.4000
mp-602268,Zr2In5Ni,"In, Ni, Zr",3,0.0,Tetragonal,136,P4_2/mnm,0.0,False,True,0.20850284770237548,Zr: 0.2500; In: 0.6250; Ni: 0.1250
mp-1104609,Ba(Cd2Pt)2,"Ba, Cd, Pt",3,0.0,Tetragonal,136,P4_2/mnm,0.0,False,True,0.4942355207793142,Ba: 0.2500; Cd: 0.5000; Pt: 0.2500
mp-510041,Hf2Ni2Sn,"Hf, Ni, Sn",3,0.010986379499998478,Tetragonal,136,P4_2/mnm,0.0,False,True,0.3075451186411515,Hf: 0.4000; Ni: 0.4000; Sn: 0.2000
mp-632502,Zr2InNi2,"In, Ni, Zr",3,0.002072019000001646,Tetragonal,136,P4_2/mnm,0.0,True,True,0.26716287167194464,Zr: 0.4000; In: 0.2000; Ni: 0.4000
mp-1208923,Sr(TlHg)2,"Hg, Sr, Tl",3,0.03848041883333231,Tetragonal,136,P4_2/mnm,0.0,True,True,0.43407628617815813,Sr: 0.3333; Tl: 0.3333; Hg: 0.3333
mp-3392,Ba(TlHg)2,"Ba, Hg, Tl",3,0.003966715833332524,Tetragonal,136,P4_2/mnm,0.0,False,True,0.4606034688922301,Ba: 0.3333; Tl: 0.3333; Hg: 0.3333
mp-669575,Hf2InNi2,"Hf, In, Ni",3,0.003151685500000667,Tetragonal,136,P4_2/mnm,0.0,True,True,0.28163806560903654,Hf: 0.4000; In: 0.2000; Ni: 0.4000
mp-680530,BiPtPb3,"Bi, Pb, Pt",3,0.0024164540000013446,Tetragonal,136,P4_2/mnm,0.0,False,True,0.1205653349848123,Bi: 0.2000; Pt: 0.2000; Pb: 0.6000
mp-1105850,Y2SnAu2,"Au, Sn, Y",3,0.010437180499998533,Tetragonal,136,P4_2/mnm,0.0,False,True,0.5911886331789542,Y: 0.4000; Sn: 0.2000; Au: 0.4000
mp-1212691,Hf2InPd2,"Hf, In, Pd",3,0.0,Tetragonal,136,P4_2/mnm,0.0,True,True,0.4026710816535005,Hf: 0.4000; In: 0.2000; Pd: 0.4000
mp-1209388,Sc2InAu2,"Au, In, Sc",3,0.0,Tetragonal,136,P4_2/mnm,0.0,True,True,0.5320751826574888,Sc: 0.4000; In: 0.2000; Au: 0.4000
mp-510040,Zr2Ni2Sn,"Ni, Sn, Zr",3,0.017457659499999778,Tetragonal,136,P4_2/mnm,0.0,False,True,0.2928754001277676,Zr: 0.4000; Ni: 0.4000; Sn: 0.2000
mp-568580,Na10(Ga2Sn)3,"Ga, Na, Sn",3,0.0,Tetragonal,136,P4_2/mnm,0.0,False,True,0.3933019076136606,Na: 0.7692; Ga: 0.1538; Sn: 0.0769
mp-1104117,Sr(Cd2Pt)2,"Cd, Pt, Sr",3,0.0,Tetragonal,136,P4_2/mnm,0.0,False,True,0.47171893114438385,Sr: 0.2500; Cd: 0.5000; Pt: 0.2500
mp-1209130,Sc2InPd2,"In, Pd, Sc",3,0.0,Tetragonal,136,P4_2/mnm,0.0,True,True,0.37565942021996473,Sc: 0.4000; In: 0.2000; Pd: 0.4000
mp-1214261,BiPb3Au,"Au, Bi, Pb",3,0.0023172055000020286,Tetragonal,136,P4_2/mnm,0.0,True,True,0.16625281952496326,Bi: 0.2000; Pb: 0.6000; Au: 0.2000
mp-20339,Ti2InNi2,"In, Ni, Ti",3,0.0,Tetragonal,136,P4_2/mnm,0.0,False,True,0.16692513291892264,Ti: 0.4000; In: 0.2000; Ni: 0.4000
mp-1185055,Hf2InNi2,"Hf, In, Ni",3,0.0,Tetragonal,136,P4_2/mnm,0.0,True,True,0.28163806560903654,Hf: 0.4000; In: 0.2000; Ni: 0.4000
mp-1212597,Hf2InCu2,"Cu, Hf, In",3,0.0,Tetragonal,136,P4_2/mnm,0.0,True,True,0.27782008566696537,Hf: 0.4000; In: 0.2000; Cu: 0.4000
mp-21875,Y4GaCo4,"Co, Ga, Y",3,2.6341481485836482e-05,Monoclinic,12,C2/m,0.0,False,True,0.3216777008278263,Y: 0.4444; Ga: 0.1111; Co: 0.4444
mp-1215988,YGaAg,"Ag, Ga, Y",3,0.0018272027777781474,Monoclinic,12,C2/m,0.0,True,True,0.3103045099396541,Y: 0.3333; Ga: 0.3333; Ag: 0.3333
mp-582108,Sr21(Cd2Bi9)2,"Bi, Cd, Sr",3,0.0,Monoclinic,12,C2/m,0.17779999999999996,False,False,0.4854780786438766,Sr: 0.6562; Cd: 0.0625; Bi: 0.2812
mp-1222935,LaAlZn,"Al, La, Zn",3,0.0,Monoclinic,12,C2/m,0.0,True,True,0.2503774927761856,La: 0.3333; Al: 0.3333; Zn: 0.3333
mp-1219296,ScGaCu,"Cu, Ga, Sc",3,0.0,Monoclinic,12,C2/m,0.0,True,True,0.23622023622035426,Sc: 0.3333; Ga: 0.3333; Cu: 0.3333
mp-1222857,LaMg11Al,"Al, La, Mg",3,0.03523981403846177,Monoclinic,12,C2/m,0.0,True,True,0.10132845415430838,La: 0.0769; Mg: 0.8462; Al: 0.0769
mp-1228055,BaInGa,"Ba, Ga, In",3,0.01888275666666628,Monoclinic,12,C2/m,0.0,True,True,0.4267968551378461,Ba: 0.3333; In: 0.3333; Ga: 0.3333
mp-1220626,Sc36In5Co13,"Co, In, Sc",3,0.0,Monoclinic,12,C2/m,0.0118999999999998,True,False,0.23347232779574723,Sc: 0.6667; In: 0.0926; Co: 0.2407
mp-1078257,Sr(SnHg)2,"Hg, Sn, Sr",3,0.0,Monoclinic,12,C2/m,0.0,False,True,0.4858211833815218,Sr: 0.3333; Sn: 0.3333; Hg: 0.3333
mp-680480,K6CdPb8,"Cd, K, Pb",3,0.045107069232642516,Monoclinic,12,C2/m,0.0,False,True,0.7219202787627517,K: 0.4000; Cd: 0.0667; Pb: 0.5333
mp-1214964,Ca21(Cd2Bi9)2,"Bi, Ca, Cd",3,0.0,Monoclinic,12,C2/m,0.15200000000000014,True,False,0.4620267849378432,Ca: 0.6562; Cd: 0.0625; Bi: 0.2812
mp-31484,K4GaAu8,"Au, Ga, K",3,0.0,Monoclinic,12,C2/m,0.0,False,True,0.7801244021566284,K: 0.3077; Ga: 0.0769; Au: 0.6154
mp-4847,Y4Al23Ni6,"Al, Ni, Y",3,0.0,Monoclinic,12,C2/m,0.0,False,True,0.18640576020610664,Y: 0.1212; Al: 0.6970; Ni: 0.1818
mp-1227096,CaGaCu,"Ca, Cu, Ga",3,0.015690364000004564,Monoclinic,12,C2/m,0.0,True,True,0.4047221268969612,Ca: 0.3333; Ga: 0.3333; Cu: 0.3333
mp-1216193,Y(Al3Fe)3,"Al, Fe, Y",3,0.007980625865393165,Monoclinic,12,C2/m,0.0,True,True,0.1973423421367042,Y: 0.2000; Al: 0.6000; Fe: 0.2000
mp-1226821,CaAlGa,"Al, Ca, Ga",3,0.008254888333341981,Monoclinic,12,C2/m,0.0,True,True,0.3445125380721127,Ca: 0.3333; Al: 0.3333; Ga: 0.3333
mp-1219310,ScGaNi,"Ga, Ni, Sc",3,0.0,Monoclinic,12,C2/m,0.0,True,True,0.239211668240122,Sc: 0.3333; Ga: 0.3333; Ni: 0.3333
mp-1228081,BaHgPb,"Ba, Hg, Pb",3,0.0,Monoclinic,12,C2/m,0.0,True,True,0.6159545437773798,Ba: 0.3333; Hg: 0.3333; Pb: 0.3333
mp-1206347,La4Co2Sn5,"Co, La, Sn",3,0.013442404383117612,Monoclinic,12,C2/m,0.0,True,True,0.4037346317726062,La: 0.3636; Co: 0.1818; Sn: 0.4545
mp-1179384,Y4In20Ni11,"In, Ni, Y",3,0.01689507707143001,Monoclinic,12,C2/m,0.0,False,True,0.20153371116191424,Y: 0.1143; In: 0.5714; Ni: 0.3143
mp-1216128,Y3Ga7Cu4,"Cu, Ga, Y",3,0.0,Monoclinic,12,C2/m,0.0,True,True,0.2583868717837733,Y: 0.2143; Ga: 0.5000; Cu: 0.2857
mp-1068891,Sr(CuSn)2,"Cu, Sn, Sr",3,0.0,Monoclinic,12,C2/m,0.0,False,True,0.4626253583864834,Sr: 0.3333; Cu: 0.3333; Sn: 0.3333
mp-568866,Na6ZnSn2,"Na, Sn, Zn",3,0.0,Monoclinic,12,C2/m,0.0,False,True,0.4449080914936737,Na: 0.6667; Zn: 0.1111; Sn: 0.2222
mp-1222208,Mg3(AlCu2)2,"Al, Cu, Mg",3,0.0,Monoclinic,12,C2/m,0.0,True,True,0.26493185706684813,Mg: 0.5000; Al: 0.1667; Cu: 0.3333
mp-1227419,Ca(MnAl3)3,"Al, Ca, Mn",3,0.034569664615383466,Monoclinic,12,C2/m,0.0,True,True,0.23913176284216203,Ca: 0.2000; Mn: 0.2000; Al: 0.6000
mp-1221714,MnAl24Cr,"Al, Cr, Mn",3,0.0,Monoclinic,12,C2/m,0.0,True,True,0.01531233018261105,Mn: 0.0385; Al: 0.9231; Cr: 0.0385
mp-1228125,BaCdPb,"Ba, Cd, Pb",3,0.0,Monoclinic,12,C2/m,0.0,True,True,0.5890859209166539,Ba: 0.3333; Cd: 0.3333; Pb: 0.3333
mp-573548,La3(GaNi2)2,"Ga, La, Ni",3,0.0016511240740761934,Monoclinic,12,C2/m,0.0,False,True,0.38976132297713795,La: 0.5000; Ga: 0.1667; Ni: 0.3333
mp-1197789,La4In21Pd10,"In, La, Pd",3,0.0,Monoclinic,12,C2/m,0.0,False,True,0.3185241476765321,La: 0.1143; In: 0.6000; Pd: 0.2857
mp-1227020,CaZnAg,"Ag, Ca, Zn",3,0.0,Monoclinic,12,C2/m,0.0,True,True,0.3895581542665428,Ca: 0.3333; Zn: 0.3333; Ag: 0.3333
mp-1218548,Sr3Sn3Au8,"Au, Sn, Sr",3,0.0068276485714280355,Monoclinic,12,C2/m,0.0,True,True,0.6305524788401269,Sr: 0.2143; Sn: 0.2143; Au: 0.5714
mp-1218590,SrAlIn,"Al, In, Sr",3,0.014459134166666221,Monoclinic,12,C2/m,0.0,True,True,0.35798820588890296,Sr: 0.3333; Al: 0.3333; In: 0.3333
mp-579544,Ca6Cu2Sn7,"Ca, Cu, Sn",3,0.0,Monoclinic,12,C2/m,0.0,False,True,0.46417238177211706,Ca: 0.4000; Cu: 0.1333; Sn: 0.4667
mp-1216614,Y9Ni24Sn49,"Ni, Sn, Y",3,0.02097456145579457,Monoclinic,12,C2/m,0.0,True,True,0.22725805263315776,Y: 0.1098; Ni: 0.2927; Sn: 0.5976
mp-568974,Ca(CuSn)2,"Ca, Cu, Sn",3,0.0,Monoclinic,12,C2/m,0.0,False,True,0.4390899680020029,Ca: 0.3333; Cu: 0.3333; Sn: 0.3333
mp-17017,Al12Co4Cu,"Al, Co, Cu",3,0.0024235983333316113,Monoclinic,12,C2/m,0.0,True,True,0.12492212106820756,Al: 0.7059; Co: 0.2353; Cu: 0.0588
mp-31294,Sr2In3Rh2,"In, Rh, Sr",3,0.0,Monoclinic,12,C2/m,0.0,False,True,0.5092812061511552,Sr: 0.2857; In: 0.4286; Rh: 0.2857
mp-655147,Ba11(Cd4Bi7)2,"Ba, Bi, Cd",3,0.04782516454545238,Monoclinic,12,C2/m,0.0,False,True,0.5173248495867949,Ba: 0.5000; Cd: 0.1818; Bi: 0.3182
mp-1218620,SrCdPb,"Cd, Pb, Sr",3,0.0,Monoclinic,12,C2/m,0.0,True,True,0.5638754787677467,Sr: 0.3333; Cd: 0.3333; Pb: 0.3333
mp-604537,MnGaNi2,"Ga, Mn, Ni",3,0.006824525499999012,Monoclinic,12,C2/m,0.0,False,True,0.14722431864335453,Mn: 0.2500; Ga: 0.2500; Ni: 0.5000
mp-1216283,Y6Ga17Pd5,"Ga, Pd, Y",3,0.00022830678573004803,Monoclinic,12,C2/m,0.0,True,True,0.3138932208277724,Y: 0.2143; Ga: 0.6071; Pd: 0.1786
mp-30254,Ba3(LiSn2)4,"Ba, Li, Sn",3,0.0,Monoclinic,12,C2/m,0.0,False,True,0.49482039390290106,Ba: 0.5000; Li: 0.1667; Sn: 0.3333
mp-1218329,SrCdGa,"Cd, Ga, Sr",3,0.024987149166667333,Monoclinic,12,C2/m,0.0,True,True,0.3802922852520443,Sr: 0.3333; Cd: 0.3333; Ga: 0.3333
mp-1215372,Zr4NbAl3,"Al, Nb, Zr",3,0.07555042562499992,Monoclinic,12,C2/m,0.0,True,True,0.13878377967183342,Zr: 0.5000; Nb: 0.1250; Al: 0.3750
mp-1218342,SrCdSn,"Cd, Sn, Sr",3,0.0,Monoclinic,12,C2/m,0.0,True,True,0.42695302890234765,Sr: 0.3333; Cd: 0.3333; Sn: 0.3333
mp-1215979,YGaAu,"Au, Ga, Y",3,0.0,Monoclinic,12,C2/m,0.0,True,True,0.5398971095392981,Y: 0.3333; Ga: 0.3333; Au: 0.3333
mp-1201076,Y4Ga21Ni10,"Ga, Ni, Y",3,0.0026877311428572526,Monoclinic,12,C2/m,0.0,False,True,0.2028056272616211,Y: 0.1143; Ga: 0.6000; Ni: 0.2857
mp-1227971,BaCdSn,"Ba, Cd, Sn",3,0.0,Monoclinic,12,C2/m,0.0,True,True,0.4543371239753826,Ba: 0.3333; Cd: 0.3333; Sn: 0.3333
mp-1216209,Y3(Al7Cr2)4,"Al, Cr, Y",3,0.017836715384612845,Monoclinic,12,C2/m,0.0,True,True,0.17461664360026577,Y: 0.2500; Al: 0.5833; Cr: 0.1667
mp-1216279,Y6Ga17Pt5,"Ga, Pt, Y",3,0.020021712295916316,Monoclinic,12,C2/m,0.0,True,True,0.33501199338872284,Y: 0.2143; Ga: 0.6071; Pt: 0.1786
mp-1215244,ZrNb2Pd9,"Nb, Pd, Zr",3,0.01616076013888801,Tetragonal,139,I4/mmm,0.0,True,True,0.30548117781624456,Zr: 0.0833; Nb: 0.1667; Pd: 0.7500
mp-29623,SrZnBi2,"Bi, Sr, Zn",3,0.01962515576922863,Tetragonal,139,I4/mmm,0.0,False,True,0.4368638231760557,Sr: 0.2500; Zn: 0.2500; Bi: 0.5000
mp-1104561,Hf(Al2Fe)4,"Al, Fe, Hf",3,0.0,Tetragonal,139,I4/mmm,0.0,False,True,0.18872930350107267,Hf: 0.2500; Al: 0.5000; Fe: 0.2500
mp-1025167,Hf(VGa2)2,"Ga, Hf, V",3,0.0,Tetragonal,139,I4/mmm,0.0,False,True,0.2082516506537223,Hf: 0.2500; V: 0.2500; Ga: 0.5000
mp-1208897,Sr(MgIn)2,"In, Mg, Sr",3,0.007736219000001654,Tetragonal,139,I4/mmm,0.0,True,True,0.3398365620248782,Sr: 0.3333; Mg: 0.3333; In: 0.3333
mp-1207102,Sr(AlGa)2,"Al, Ga, Sr",3,0.0,Tetragonal,139,I4/mmm,0.0,True,True,0.3674537007872179,Sr: 0.3333; Al: 0.3333; Ga: 0.3333
mp-1018060,GaCo2Ni,"Co, Ga, Ni",3,0.07530284384615271,Tetragonal,139,I4/mmm,0.0,True,True,0.036742346141747616,Ga: 0.2500; Co: 0.5000; Ni: 0.2500
mp-9690,Ca(AlGa)2,"Al, Ca, Ga",3,0.0,Tetragonal,139,I4/mmm,0.0,False,True,0.3445125380721127,Ca: 0.3333; Al: 0.3333; Ga: 0.3333
mp-1087476,K2Mg5Sn3,"K, Mg, Sn",3,0.0,Tetragonal,139,I4/mmm,0.0,False,True,0.40664603772814506,K: 0.2000; Mg: 0.5000; Sn: 0.3000
mp-1104462,Ca(Al2Fe)4,"Al, Ca, Fe",3,0.0,Tetragonal,139,I4/mmm,0.0,False,True,0.309222816105151,Ca: 0.2500; Al: 0.5000; Fe: 0.2500
mp-10896,Y(MnAl2)4,"Al, Mn, Y",3,0.0,Tetragonal,139,I4/mmm,0.0,False,True,0.16207637088730736,Y: 0.2500; Mn: 0.2500; Al: 0.5000
mp-1025457,HfAl5Ni2,"Al, Hf, Ni",3,0.012345198749999398,Tetragonal,139,I4/mmm,0.0,True,True,0.18220438386603102,Hf: 0.1250; Al: 0.6250; Ni: 0.2500
mp-1103819,La(MnAl2)4,"Al, La, Mn",3,0.012348660769233355,Tetragonal,139,I4/mmm,0.0,False,True,0.21358546298847214,La: 0.2500; Mn: 0.2500; Al: 0.5000
mp-1068325,Sr(InHg)2,"Hg, In, Sr",3,0.006605706666666489,Tetragonal,139,I4/mmm,0.0,False,True,0.4521307578811933,Sr: 0.3333; In: 0.3333; Hg: 0.3333
mp-1210826,MnGaFe2,"Fe, Ga, Mn",3,0.08236260278286611,Tetragonal,139,I4/mmm,0.0,True,True,0.11863810517704673,Mn: 0.2500; Ga: 0.2500; Fe: 0.5000
mp-1078064,Ca(CdAu2)2,"Au, Ca, Cd",3,0.0,Tetragonal,139,I4/mmm,0.0,False,True,0.6453826384401737,Ca: 0.2500; Cd: 0.2500; Au: 0.5000
mp-10878,Ca(MnAl2)4,"Al, Ca, Mn",3,0.01940824076923331,Tetragonal,139,I4/mmm,0.0,False,True,0.25664907948403015,Ca: 0.2500; Mn: 0.2500; Al: 0.5000
mp-12783,Sr(CdGa)2,"Cd, Ga, Sr",3,0.0,Tetragonal,139,I4/mmm,0.0,False,True,0.3802922852520443,Sr: 0.3333; Cd: 0.3333; Ga: 0.3333
mp-30426,BaCdBi2,"Ba, Bi, Cd",3,0.0,Tetragonal,139,I4/mmm,0.0,False,True,0.46176292618615455,Ba: 0.2500; Cd: 0.2500; Bi: 0.5000
mp-1207070,TiCuNi2,"Cu, Ni, Ti",3,0.010458273437500942,Tetragonal,139,I4/mmm,0.0,True,True,0.15882380174268587,Ti: 0.2500; Cu: 0.2500; Ni: 0.5000
mp-7882,Ba(AgSn)2,"Ag, Ba, Sn",3,0.0,Tetragonal,139,I4/mmm,0.0,False,True,0.49748255134113883,Ba: 0.3333; Ag: 0.3333; Sn: 0.3333
mp-1018062,FeSnRh2,"Fe, Rh, Sn",3,0.0,Tetragonal,139,I4/mmm,0.0,False,True,0.1979109648301477,Fe: 0.2500; Sn: 0.2500; Rh: 0.5000
mp-1025236,Sc(TiGa2)2,"Ga, Sc, Ti",3,0.0011790725000047075,Tetragonal,139,I4/mmm,0.0,False,True,0.19091883092036782,Sc: 0.2500; Ti: 0.2500; Ga: 0.5000
mp-30183,ZrAl5Ni2,"Al, Ni, Zr",3,0.0,Tetragonal,139,I4/mmm,0.0,False,True,0.17521415467935225,Zr: 0.1250; Al: 0.6250; Ni: 0.2500
mp-31081,Sc(MnAl2)4,"Al, Mn, Sc",3,0.0,Tetragonal,139,I4/mmm,0.0,False,True,0.10256095748383007,Sc: 0.2500; Mn: 0.2500; Al: 0.5000
mp-1208837,Sr(InCu)2,"Cu, In, Sr",3,0.0845678370000007,Tetragonal,139,I4/mmm,0.0,True,True,0.42240054713769276,Sr: 0.3333; In: 0.3333; Cu: 0.3333
mp-1018085,CoSnRh2,"Co, Rh, Sn",3,0.06611664624999847,Tetragonal,139,I4/mmm,0.0,False,True,0.18220867158288592,Co: 0.2500; Sn: 0.2500; Rh: 0.5000
mp-1018066,CrSnRh2,"Cr, Rh, Sn",3,0.0,Tetragonal,139,I4/mmm,0.0,False,True,0.2578274616870747,Cr: 0.2500; Sn: 0.2500; Rh: 0.5000
mp-1078938,YAl2Pd5,"Al, Pd, Y",3,0.0,Tetragonal,139,I4/mmm,0.0,False,True,0.36629905814784736,Y: 0.1250; Al: 0.2500; Pd: 0.6250
mp-11029,Y(Al2Cu)4,"Al, Cu, Y",3,0.0,Tetragonal,139,I4/mmm,0.0,False,True,0.24171263930543638,Y: 0.2500; Al: 0.5000; Cu: 0.2500
mp-4656,Y(Al2Fe)4,"Al, Fe, Y",3,0.0,Tetragonal,139,I4/mmm,0.0,False,True,0.2198152633462927,Y: 0.2500; Al: 0.5000; Fe: 0.2500
mp-568501,SrCdBi2,"Bi, Cd, Sr",3,0.0,Tetragonal,139,I4/mmm,0.0,False,True,0.43697826032881776,Sr: 0.2500; Cd: 0.2500; Bi: 0.5000
mp-1214765,Ba(MgIn)2,"Ba, In, Mg",3,0.0025334539999986028,Tetragonal,139,I4/mmm,0.0,True,True,0.36353205574688396,Ba: 0.3333; Mg: 0.3333; In: 0.3333
mp-1025365,Sc(VGa2)2,"Ga, Sc, V",3,0.0,Tetragonal,139,I4/mmm,0.0,False,True,0.18417043736713012,Sc: 0.2500; V: 0.2500; Ga: 0.5000