material_id,formula,elements,num_elements,energy_above_hull,crystal_system,spacegroup_number,spacegroup_symbol,band_gap,theoretical,is_metal,electronegativity_difference,atomic_concentrations
mp-1218026,Ta4(Pd3Rh)3,"Pd, Rh, Ta",3,0.013606973749997309,Hexagonal,187,P-6m2,0.0,True,True,0.36083237105337435,Ta: 0.5000; Pd: 0.3750; Rh: 0.1250
mp-1028222,Mg14AlGa,"Al, Ga, Mg",3,0.02747606138020875,Hexagonal,187,P-6m2,0.0,True,True,0.13693063937629155,Mg: 0.8750; Al: 0.0625; Ga: 0.0625
mp-1027998,Mg14ZnCu,"Cu, Mg, Zn",3,0.07385922312500015,Hexagonal,187,P-6m2,0.0,True,True,0.16000854469371312,Mg: 0.8750; Zn: 0.0625; Cu: 0.0625
mp-1028198,YMg14Al,"Al, Mg, Y",3,0.08659638489583399,Hexagonal,187,P-6m2,0.0,True,True,0.07719445818839589,Y: 0.0625; Mg: 0.8750; Al: 0.0625
mp-1027823,LiMg14Cu,"Cu, Li, Mg",3,0.058517962552083524,Hexagonal,187,P-6m2,0.0,True,True,0.1682213942992983,Li: 0.0625; Mg: 0.8750; Cu: 0.0625
mp-1222960,LaCuNi4,"Cu, La, Ni",3,0.0,Hexagonal,187,P-6m2,0.0,True,True,0.3011459594430728,La: 0.1667; Cu: 0.1667; Ni: 0.6667
mp-1027841,Mg14ZrCd,"Cd, Mg, Zr",3,0.043052083593750234,Hexagonal,187,P-6m2,0.0,True,True,0.09178779875342907,Mg: 0.8750; Zr: 0.0625; Cd: 0.0625
mp-1028122,CaMg14Cd,"Ca, Cd, Mg",3,0.0633269993750003,Hexagonal,187,P-6m2,0.0,True,True,0.122523913482226,Ca: 0.0625; Mg: 0.8750; Cd: 0.0625
mp-1028183,NaCaMg14,"Ca, Mg, Na",3,0.07595992772629323,Hexagonal,187,P-6m2,0.0,True,True,0.1147670875076997,Na: 0.0625; Ca: 0.0625; Mg: 0.8750
mp-1026643,HfMg14Sn,"Hf, Mg, Sn",3,0.08929121325000144,Hexagonal,187,P-6m2,0.0,True,True,0.15751984002023361,Hf: 0.0625; Mg: 0.8750; Sn: 0.0625
mp-1026633,LiMg14Ti,"Li, Mg, Ti",3,0.08394288354166668,Hexagonal,187,P-6m2,0.0,True,True,0.10036651583072914,Li: 0.0625; Mg: 0.8750; Ti: 0.0625
mp-11743,LiYGa4,"Ga, Li, Y",3,0.0,Hexagonal,187,P-6m2,0.0,False,True,0.3417926596962291,Li: 0.1667; Y: 0.1667; Ga: 0.6667
mp-567545,K(In3Au2)2,"Au, In, K",3,0.0,Hexagonal,187,P-6m2,0.0,False,True,0.580880557621119,K: 0.1667; In: 0.5000; Au: 0.3333
mp-1026440,HfMg14Cd,"Cd, Hf, Mg",3,0.0647845334374999,Hexagonal,187,P-6m2,0.0,True,True,0.09217637644754753,Hf: 0.0625; Mg: 0.8750; Cd: 0.0625
mp-1026895,Mg14CuBi,"Bi, Cu, Mg",3,0.07066620562499981,Hexagonal,187,P-6m2,0.0,True,True,0.21601142909577722,Mg: 0.8750; Cu: 0.0625; Bi: 0.0625
mp-1205978,CaAgPb,"Ag, Ca, Pb",3,0.0,Hexagonal,187,P-6m2,0.0,True,True,0.5571554740126154,Ca: 0.3333; Ag: 0.3333; Pb: 0.3333
mp-1027960,NaMg14Zn,"Mg, Na, Zn",3,0.06887423988879338,Hexagonal,187,P-6m2,0.0,True,True,0.12745097096530883,Na: 0.0625; Mg: 0.8750; Zn: 0.0625
mp-1026781,NaLaMg14,"La, Mg, Na",3,0.09185754460129325,Hexagonal,187,P-6m2,0.0,True,True,0.10208567174192468,Na: 0.0625; La: 0.0625; Mg: 0.8750
mp-1026579,Mg14GaSn,"Ga, Mg, Sn",3,0.03034032843750012,Hexagonal,187,P-6m2,0.0,True,True,0.1920032144913204,Mg: 0.8750; Ga: 0.0625; Sn: 0.0625
mp-1027888,Mg14ZnCd,"Cd, Mg, Zn",3,0.03564918028750008,Hexagonal,187,P-6m2,0.0,True,True,0.11926860441876559,Mg: 0.8750; Zn: 0.0625; Cd: 0.0625
mp-12951,ZrGaAu,"Au, Ga, Zr",3,0.0,Hexagonal,187,P-6m2,0.0,False,True,0.4974825513411389,Zr: 0.3333; Ga: 0.3333; Au: 0.3333
mp-1028199,Mg14AlZn,"Al, Mg, Zn",3,0.038362542292708524,Hexagonal,187,P-6m2,0.0,True,True,0.10606601717798211,Mg: 0.8750; Al: 0.0625; Zn: 0.0625
mp-1028063,Mg14MnGa,"Ga, Mg, Mn",3,0.08120961231681045,Hexagonal,187,P-6m2,0.0,True,True,0.13071318793450032,Mg: 0.8750; Mn: 0.0625; Ga: 0.0625
mp-1222931,LaFeNi4,"Fe, La, Ni",3,0.051083539166669745,Hexagonal,187,P-6m2,0.0,True,True,0.29734473072326145,La: 0.1667; Fe: 0.1667; Ni: 0.6667
mp-1028260,NaMg14Sn,"Mg, Na, Sn",3,0.06865566937500023,Hexagonal,187,P-6m2,0.0,True,True,0.18747395652463303,Na: 0.0625; Mg: 0.8750; Sn: 0.0625
mp-1027816,Mg14CuSn,"Cu, Mg, Sn",3,0.060884638281250014,Hexagonal,187,P-6m2,0.0,True,True,0.20531987239427163,Mg: 0.8750; Cu: 0.0625; Sn: 0.0625
mp-1027979,Mg14ZnNi,"Mg, Ni, Zn",3,0.08178744018333362,Hexagonal,187,P-6m2,0.0,True,True,0.1620908310176735,Mg: 0.8750; Zn: 0.0625; Ni: 0.0625
mp-1028085,YMg14Zr,"Mg, Y, Zr",3,0.0806381953124995,Hexagonal,187,P-6m2,0.0,True,True,0.02262983373778961,Y: 0.0625; Mg: 0.8750; Zr: 0.0625
mp-1027918,Mg14ZrSn,"Mg, Sn, Zr",3,0.08466416300000024,Hexagonal,187,P-6m2,0.0,True,True,0.15709148409446005,Mg: 0.8750; Zr: 0.0625; Sn: 0.0625
mp-1028218,NaMg14Al,"Al, Mg, Na",3,0.05989851910650179,Hexagonal,187,P-6m2,0.0,True,True,0.12093386622447824,Na: 0.0625; Mg: 0.8750; Al: 0.0625
mp-1026492,Mg14CrGa,"Cr, Ga, Mg",3,0.09951473468749983,Hexagonal,187,P-6m2,0.0,True,True,0.14303490614182257,Mg: 0.8750; Cr: 0.0625; Ga: 0.0625
mp-12952,HfGaAu,"Au, Ga, Hf",3,0.0,Hexagonal,187,P-6m2,0.0,False,True,0.5088767587103538,Hf: 0.3333; Ga: 0.3333; Au: 0.3333
mp-1215968,YBeCu4,"Be, Cu, Y",3,0.0416600306837589,Hexagonal,187,P-6m2,0.0,True,True,0.25861275211318474,Y: 0.1667; Be: 0.1667; Cu: 0.6667
mp-1028124,CaMg14Ga,"Ca, Ga, Mg",3,0.0764788862500001,Hexagonal,187,P-6m2,0.0,True,True,0.14659547869903766,Ca: 0.0625; Mg: 0.8750; Ga: 0.0625
mp-1028156,CaYMg14,"Ca, Mg, Y",3,0.06254521812499969,Hexagonal,187,P-6m2,0.0,True,True,0.07673004626611404,Ca: 0.0625; Y: 0.0625; Mg: 0.8750
mp-1028024,YMg14Cd,"Cd, Mg, Y",3,0.053710296875000285,Hexagonal,187,P-6m2,0.0,True,True,0.095930883322317,Y: 0.0625; Mg: 0.8750; Cd: 0.0625
mp-1026402,HfMg14Bi,"Bi, Hf, Mg",3,0.07815572921875003,Hexagonal,187,P-6m2,0.0,True,True,0.17204196435753688,Hf: 0.0625; Mg: 0.8750; Bi: 0.0625
mp-1028049,SrYMg14,"Mg, Sr, Y",3,0.08797006906249982,Hexagonal,187,P-6m2,0.0,True,True,0.08840381425594715,Sr: 0.0625; Y: 0.0625; Mg: 0.8750
mp-1027904,HfMg14Zn,"Hf, Mg, Zn",3,0.08560688085937462,Hexagonal,187,P-6m2,0.0,True,True,0.0824976325417887,Hf: 0.0625; Mg: 0.8750; Zn: 0.0625
mp-1222921,LaAlCu4,"Al, Cu, La",3,0.06620251666666555,Hexagonal,187,P-6m2,0.0,True,True,0.296109026467542,La: 0.1667; Al: 0.1667; Cu: 0.6667
mp-1222076,Mn4Ga3Cu2,"Cu, Ga, Mn",3,0.09171032612388252,Hexagonal,187,P-6m2,0.0,True,True,0.1507102526270644,Mn: 0.4444; Ga: 0.3333; Cu: 0.2222
mp-1227397,BiPt2Pb,"Bi, Pb, Pt",3,0.0,Hexagonal,187,P-6m2,0.0,True,True,0.1215267460273663,Bi: 0.2500; Pt: 0.5000; Pb: 0.2500
mp-1026392,Mg14TiBi,"Bi, Mg, Ti",3,0.08372775213541628,Hexagonal,187,P-6m2,0.0,True,True,0.177090195945456,Mg: 0.8750; Ti: 0.0625; Bi: 0.0625
mp-1099087,Mg14CoSn,"Co, Mg, Sn",3,0.09877582906249982,Hexagonal,187,P-6m2,0.0,True,True,0.2022336210920429,Mg: 0.8750; Co: 0.0625; Sn: 0.0625
mp-1227033,CaSnHg,"Ca, Hg, Sn",3,0.0768961983333365,Hexagonal,187,P-6m2,0.0,True,True,0.4622649552895924,Ca: 0.3333; Sn: 0.3333; Hg: 0.3333
mp-1028362,Mg14NiSn,"Mg, Ni, Sn",3,0.07762738458333329,Hexagonal,187,P-6m2,0.0,True,True,0.2068882171004429,Mg: 0.8750; Ni: 0.0625; Sn: 0.0625
mp-1027955,LiMg14Zn,"Li, Mg, Zn",3,0.04807423312500014,Hexagonal,187,P-6m2,0.0,True,True,0.11845192854065313,Li: 0.0625; Mg: 0.8750; Zn: 0.0625
mp-1026799,LiMg14Cd,"Cd, Li, Mg",3,0.04017056500000016,Hexagonal,187,P-6m2,0.0,True,True,0.12578348212305143,Li: 0.0625; Mg: 0.8750; Cd: 0.0625
mp-1028221,Mg14AlCd,"Al, Cd, Mg",3,0.027533483880208598,Hexagonal,187,P-6m2,0.0,True,True,0.11333026956643136,Mg: 0.8750; Al: 0.0625; Cd: 0.0625
mp-1222941,LaGaNi4,"Ga, La, Ni",3,0.0,Hexagonal,187,P-6m2,0.0,True,True,0.2966713482776671,La: 0.1667; Ga: 0.1667; Ni: 0.6667
mp-1026837,LiLaMg14,"La, Li, Mg",3,0.07914272406250022,Hexagonal,187,P-6m2,0.0,True,True,0.09177928687890315,Li: 0.0625; La: 0.0625; Mg: 0.8750
mp-1215955,YAlCo4,"Al, Co, Y",3,0.050559095384617336,Hexagonal,187,P-6m2,0.0,True,True,0.2464244306070321,Y: 0.1667; Al: 0.1667; Co: 0.6667
mp-1027958,LaMg14Zn,"La, Mg, Zn",3,0.09601586500000026,Hexagonal,187,P-6m2,0.0,True,True,0.09957526989669671,La: 0.0625; Mg: 0.8750; Zn: 0.0625
mp-1028133,Mg14MnZn,"Mg, Mn, Zn",3,0.0875172357293108,Hexagonal,187,P-6m2,0.0,True,True,0.09752403549894761,Mg: 0.8750; Mn: 0.0625; Zn: 0.0625
mp-1027929,LiMg14Zr,"Li, Mg, Zr",3,0.055241549375000254,Hexagonal,187,P-6m2,0.0,True,True,0.08034836261555056,Li: 0.0625; Mg: 0.8750; Zr: 0.0625
mp-1027906,Mg14ZnBi,"Bi, Mg, Zn",3,0.04995375856874995,Hexagonal,187,P-6m2,0.0,True,True,0.1855387004778248,Mg: 0.8750; Zn: 0.0625; Bi: 0.0625
mp-1028255,Mg14AlSn,"Al, Mg, Sn",3,0.030474892942708554,Hexagonal,187,P-6m2,0.0,True,True,0.16883678324050122,Mg: 0.8750; Al: 0.0625; Sn: 0.0625
mp-1222982,LaAlNi4,"Al, La, Ni",3,0.04864910666666589,Hexagonal,187,P-6m2,0.0,True,True,0.3002082610455614,La: 0.1667; Al: 0.1667; Ni: 0.6667
mp-1026877,Mg14CdCu,"Cd, Cu, Mg",3,0.05756696359375013,Hexagonal,187,P-6m2,0.0,True,True,0.1646385719538407,Mg: 0.8750; Cd: 0.0625; Cu: 0.0625
mp-1027917,Mg14ZrCu,"Cu, Mg, Zr",3,0.08083525570312489,Hexagonal,187,P-6m2,0.0,True,True,0.1425753638431268,Mg: 0.8750; Zr: 0.0625; Cu: 0.0625
mp-1028244,Mg14AlCu,"Al, Cu, Mg",3,0.0790135007291668,Hexagonal,187,P-6m2,0.0,True,True,0.15584322049739602,Mg: 0.8750; Al: 0.0625; Cu: 0.0625
mp-1027951,Mg14TiZn,"Mg, Ti, Zn",3,0.08866264187500028,Hexagonal,187,P-6m2,0.0,True,True,0.09623985336127645,Mg: 0.8750; Ti: 0.0625; Zn: 0.0625
mp-1026740,LaMg14Cd,"Cd, La, Mg",3,0.08147128093750022,Hexagonal,187,P-6m2,0.0,True,True,0.10802018040625555,La: 0.0625; Mg: 0.8750; Cd: 0.0625
mp-1026884,Mg14GaCu,"Cu, Ga, Mg",3,0.0620355948437501,Hexagonal,187,P-6m2,0.0,True,True,0.1809426273021368,Mg: 0.8750; Ga: 0.0625; Cu: 0.0625
mp-1225481,LaCuSn,"Cu, La, Sn",3,0.043258524999999715,Hexagonal,187,P-6m2,0.0,True,True,0.3920317447463774,La: 0.3333; Cu: 0.3333; Sn: 0.3333
mp-1028165,CaMg14Cu,"Ca, Cu, Mg",3,0.09092469171874984,Hexagonal,187,P-6m2,0.0,True,True,0.1656992757980553,Ca: 0.0625; Mg: 0.8750; Cu: 0.0625
mp-1028158,CaMg14Zn,"Ca, Mg, Zn",3,0.06990905843749973,Hexagonal,187,P-6m2,0.0,True,True,0.1150118879725048,Ca: 0.0625; Mg: 0.8750; Zn: 0.0625
mp-1027839,NaMg14Zr,"Mg, Na, Zr",3,0.07796122678879347,Hexagonal,187,P-6m2,0.0,True,True,0.09243240773668075,Na: 0.0625; Mg: 0.8750; Zr: 0.0625
mp-1028393,Mg14CdCo,"Cd, Co, Mg",3,0.08813185562500014,Hexagonal,187,P-6m2,0.0,True,True,0.16064202244431555,Mg: 0.8750; Cd: 0.0625; Co: 0.0625
mp-1027854,Mg14ZrGa,"Ga, Mg, Zr",3,0.09916758062500053,Hexagonal,187,P-6m2,0.0,True,True,0.1208045942834957,Mg: 0.8750; Zr: 0.0625; Ga: 0.0625
mp-570677,Ba5Al5Sn,"Al, Ba, Sn",3,0.0,Hexagonal,187,P-6m2,0.0,False,True,0.39934864322165314,Ba: 0.4545; Al: 0.4545; Sn: 0.0909
mp-1028045,LiYMg14,"Li, Mg, Y",3,0.05013623781249987,Hexagonal,187,P-6m2,0.0,True,True,0.08138450405329016,Li: 0.0625; Y: 0.0625; Mg: 0.8750
mp-1027893,Mg14ZnGa,"Ga, Mg, Zn",3,0.03858427841250034,Hexagonal,187,P-6m2,0.0,True,True,0.14175242502334834,Mg: 0.8750; Zn: 0.0625; Ga: 0.0625
mp-1028272,Mg14TiSn,"Mg, Sn, Ti",3,0.08904992447916715,Hexagonal,187,P-6m2,0.0,True,True,0.1633630925270454,Mg: 0.8750; Ti: 0.0625; Sn: 0.0625
mp-1026649,NaMg14Bi,"Bi, Mg, Na",3,0.09399848645833364,Hexagonal,187,P-6m2,0.0,True,True,0.2002644735718245,Na: 0.0625; Mg: 0.8750; Bi: 0.0625
mp-1027870,Mg14ZrBi,"Bi, Mg, Zr",3,0.06994014010416727,Hexagonal,187,P-6m2,0.0,True,True,0.17160888489527573,Mg: 0.8750; Zr: 0.0625; Bi: 0.0625
mp-1026447,Mg14CdGa,"Cd, Ga, Mg",3,0.028425486875000017,Hexagonal,187,P-6m2,0.0,True,True,0.1470544116985274,Mg: 0.8750; Cd: 0.0625; Ga: 0.0625
mp-1028146,Mg14MnSn,"Mg, Mn, Sn",3,0.08085986700431036,Hexagonal,187,P-6m2,0.0,True,True,0.16404910659616526,Mg: 0.8750; Mn: 0.0625; Sn: 0.0625
mp-1217555,Ti2NbNi9,"Nb, Ni, Ti",3,0.02882490208333177,Hexagonal,187,P-6m2,0.0,True,True,0.15221284439888763,Ti: 0.1667; Nb: 0.0833; Ni: 0.7500
mp-1027997,SrMg14Zn,"Mg, Sr, Zn",3,0.09797638421875021,Hexagonal,187,P-6m2,0.0,True,True,0.12378787299247046,Sr: 0.0625; Mg: 0.8750; Zn: 0.0625
mp-1028189,SrCaMg14,"Ca, Mg, Sr",3,0.09151506906249995,Hexagonal,187,P-6m2,0.0,True,True,0.11114285570831804,Sr: 0.0625; Ca: 0.0625; Mg: 0.8750
mp-1026625,Mg14SnBi,"Bi, Mg, Sn",3,0.05220966984374953,Hexagonal,187,P-6m2,0.0,True,True,0.22513884604838852,Mg: 0.8750; Sn: 0.0625; Bi: 0.0625
mp-1026646,NaMg14Cd,"Cd, Mg, Na",3,0.05586108835129311,Hexagonal,187,P-6m2,0.0,True,True,0.13435028842544403,Na: 0.0625; Mg: 0.8750; Cd: 0.0625
mp-1026393,Mg14TiCd,"Cd, Mg, Ti",3,0.06871928010416672,Hexagonal,187,P-6m2,0.0,True,True,0.10429637757372015,Mg: 0.8750; Ti: 0.0625; Cd: 0.0625
mp-1226957,Cd3InAu12,"Au, Cd, In",3,0.00475869090904979,Hexagonal,187,P-6m2,0.0,True,True,0.3588474388580752,Cd: 0.1875; In: 0.0625; Au: 0.7500
mp-1078813,YZnPd,"Pd, Y, Zn",3,0.014596910833334142,Hexagonal,189,P-62m,0.0,False,True,0.40108187027920716,Y: 0.3333; Zn: 0.3333; Pd: 0.3333
mp-1080518,HfSnRh,"Hf, Rh, Sn",3,0.015258350000007859,Hexagonal,189,P-62m,0.0,False,True,0.40803049994931606,Hf: 0.3333; Sn: 0.3333; Rh: 0.3333
mp-1205897,Zr6FeBi2,"Bi, Fe, Zr",3,0.0,Hexagonal,189,P-62m,0.0,True,True,0.29990533485842363,Zr: 0.6667; Fe: 0.1111; Bi: 0.2222
mp-1206944,LaMgCu,"Cu, La, Mg",3,0.0,Hexagonal,189,P-62m,0.0,True,True,0.338657480190367,La: 0.3333; Mg: 0.3333; Cu: 0.3333
mp-1078767,HfAlNi,"Al, Hf, Ni",3,0.0,Hexagonal,189,P-62m,0.0,False,True,0.24904261125803792,Hf: 0.3333; Al: 0.3333; Ni: 0.3333
mp-1206510,Zr6NiSn2,"Ni, Sn, Zr",3,0.0024196472222195453,Hexagonal,189,P-62m,0.0,True,True,0.28944817655943217,Zr: 0.6667; Ni: 0.1111; Sn: 0.2222
mp-21718,Sr2In4Pt3,"In, Pt, Sr",3,0.0,Hexagonal,189,P-62m,0.0,False,True,0.4859075764376453,Sr: 0.2222; In: 0.4444; Pt: 0.3333
mp-1095158,HfGaCo,"Co, Ga, Hf",3,0.0,Hexagonal,189,P-62m,0.0,False,True,0.25849994627121725,Hf: 0.3333; Ga: 0.3333; Co: 0.3333
mp-5723,ZrAlNi,"Al, Ni, Zr",3,0.0,Hexagonal,189,P-62m,0.0,False,True,0.2368309289110881,Zr: 0.3333; Al: 0.3333; Ni: 0.3333
mp-1215751,Zr10(IrPt)3,"Ir, Pt, Zr",3,0.017732243932293557,Hexagonal,189,P-62m,0.0,True,True,0.33952990377219433,Zr: 0.8333; Ir: 0.0833; Pt: 0.0833
mp-12760,Zr6Al2Co,"Al, Co, Zr",3,0.0,Hexagonal,189,P-62m,0.0,False,True,0.18926759422104517,Zr: 0.6667; Al: 0.2222; Co: 0.1111
mp-21505,YAgPb,"Ag, Pb, Y",3,0.0,Hexagonal,189,P-62m,0.0,False,True,0.4590085934804368,Y: 0.3333; Ag: 0.3333; Pb: 0.3333
mp-569896,K14(Tl7Cd3)3,"Cd, K, Tl",3,0.0001413043985127871,Hexagonal,189,P-62m,0.0,False,True,0.40528774928712347,K: 0.5833; Tl: 0.2917; Cd: 0.1250
mp-1205789,LaCuPd,"Cu, La, Pd",3,0.027845005999999728,Hexagonal,189,P-62m,0.0,True,True,0.46427960923947065,La: 0.3333; Cu: 0.3333; Pd: 0.3333
mp-1223959,LaIn2Ni3,"In, La, Ni",3,0.032034788787876245,Hexagonal,189,P-62m,0.0,True,True,0.2884103943264797,La: 0.1667; In: 0.3333; Ni: 0.5000
mp-1079780,LaHgPd,"Hg, La, Pd",3,0.0,Hexagonal,189,P-62m,0.0,False,True,0.47842333648024415,La: 0.3333; Hg: 0.3333; Pd: 0.3333
mp-1079038,HfSnIr,"Hf, Ir, Sn",3,0.0,Hexagonal,189,P-62m,0.0,False,True,0.380525951808809,Hf: 0.3333; Sn: 0.3333; Ir: 0.3333
mp-11038,Zr6Al2Fe,"Al, Fe, Zr",3,0.009750137222220623,Hexagonal,189,P-62m,0.0,False,True,0.1769982911265767,Zr: 0.6667; Al: 0.2222; Fe: 0.1111
mp-12961,YAlPd,"Al, Pd, Y",3,0.01612190277777259,Hexagonal,189,P-62m,0.0,False,True,0.4028509512076258,Y: 0.3333; Al: 0.3333; Pd: 0.3333
mp-568539,LaInRh,"In, La, Rh",3,0.0,Hexagonal,189,P-62m,0.0,False,True,0.4835976288885901,La: 0.3333; In: 0.3333; Rh: 0.3333
mp-567932,LaMg4Cu,"Cu, La, Mg",3,0.0,Hexagonal,189,P-62m,0.0,False,True,0.24770053604212391,La: 0.1667; Mg: 0.6667; Cu: 0.1667
mp-13095,YAlNi,"Al, Ni, Y",3,0.0,Hexagonal,189,P-62m,0.0,False,True,0.28248893783651063,Y: 0.3333; Al: 0.3333; Ni: 0.3333
mp-1205750,YMgAu,"Au, Mg, Y",3,0.0,Hexagonal,189,P-62m,0.0,True,True,0.6021627686929839,Y: 0.3333; Mg: 0.3333; Au: 0.3333
mp-568695,CaCdSn,"Ca, Cd, Sn",3,0.0,Hexagonal,189,P-62m,0.0,False,True,0.40422765862815474,Ca: 0.3333; Cd: 0.3333; Sn: 0.3333
mp-5590,YMgGa,"Ga, Mg, Y",3,0.0,Hexagonal,189,P-62m,0.0,False,True,0.2595294887976231,Y: 0.3333; Mg: 0.3333; Ga: 0.3333
mp-1079842,HfGaRh,"Ga, Hf, Rh",3,0.0,Hexagonal,189,P-62m,0.0,False,True,0.40019439720660194,Hf: 0.3333; Ga: 0.3333; Rh: 0.3333
mp-1078729,Zr6CuBi2,"Bi, Cu, Zr",3,0.0,Hexagonal,189,P-62m,0.0,False,True,0.3081485933045217,Zr: 0.6667; Cu: 0.1111; Bi: 0.2222
mp-1206060,LaMgAu,"Au, La, Mg",3,0.0,Hexagonal,189,P-62m,0.0,True,True,0.6351377803280167,La: 0.3333; Mg: 0.3333; Au: 0.3333
mp-30563,ZrCoSn,"Co, Sn, Zr",3,0.0,Hexagonal,189,P-62m,0.0,False,True,0.28003967972810956,Zr: 0.3333; Co: 0.3333; Sn: 0.3333
mp-22167,Zr6Ga2Co,"Co, Ga, Zr",3,0.0,Hexagonal,189,P-62m,0.0,False,True,0.2380372416137057,Zr: 0.6667; Ga: 0.2222; Co: 0.1111
mp-1078756,ZrGaRh,"Ga, Rh, Zr",3,0.0,Hexagonal,189,P-62m,0.0,False,True,0.3878430381252474,Zr: 0.3333; Ga: 0.3333; Rh: 0.3333
mp-1205841,Y6FeBi2,"Bi, Fe, Y",3,0.008161954444442898,Hexagonal,189,P-62m,0.0,True,True,0.35109704613179127,Y: 0.6667; Fe: 0.1111; Bi: 0.2222
mp-30705,Ti4Ga3Ni2,"Ga, Ni, Ti",3,0.05217436777777795,Hexagonal,189,P-62m,0.0,False,True,0.15830896498638894,Ti: 0.4444; Ga: 0.3333; Ni: 0.2222
mp-1205904,Y6MnBi2,"Bi, Mn, Y",3,0.009418694118771498,Hexagonal,189,P-62m,0.0,True,True,0.32914404516736406,Y: 0.6667; Mn: 0.1111; Bi: 0.2222
mp-672254,CaPdPb,"Ca, Pb, Pd",3,0.0,Hexagonal,189,P-62m,0.0,False,True,0.5986837414046102,Ca: 0.3333; Pd: 0.3333; Pb: 0.3333
mp-30656,TiGaNi,"Ga, Ni, Ti",3,0.0,Hexagonal,189,P-62m,0.0,False,True,0.1562761089297472,Ti: 0.3333; Ga: 0.3333; Ni: 0.3333
mp-30921,Y6CoBi2,"Bi, Co, Y",3,0.020919509166665406,Hexagonal,189,P-62m,0.0,False,True,0.3571630329398123,Y: 0.6667; Co: 0.1111; Bi: 0.2222
mp-1197177,CsRb14Tl27,"Cs, Rb, Tl",3,0.0,Hexagonal,189,P-62m,0.0,False,True,0.3843102753701781,Cs: 0.0238; Rb: 0.3333; Tl: 0.6429
mp-1205996,Zr6MnBi2,"Bi, Mn, Zr",3,0.0,Hexagonal,189,P-62m,0.0,True,True,0.2820865815776653,Zr: 0.6667; Mn: 0.1111; Bi: 0.2222
mp-11985,LaMgTl,"La, Mg, Tl",3,0.0,Hexagonal,189,P-62m,0.0,False,True,0.21359359124801058,La: 0.3333; Mg: 0.3333; Tl: 0.3333
mp-621176,YInAu,"Au, In, Y",3,0.0,Hexagonal,189,P-62m,0.0,False,True,0.5409456740026879,Y: 0.3333; In: 0.3333; Au: 0.3333
mp-21438,LaInAu,"Au, In, La",3,0.0,Hexagonal,189,P-62m,0.0,False,True,0.588179866669674,La: 0.3333; In: 0.3333; Au: 0.3333
mp-31383,Hf6CoBi2,"Bi, Co, Hf",3,0.0,Hexagonal,189,P-62m,0.0,False,True,0.31969120903741227,Hf: 0.6667; Co: 0.1111; Bi: 0.2222
mp-1206072,Zr6CoSn2,"Co, Sn, Zr",3,0.0,Hexagonal,189,P-62m,0.0,True,True,0.2852462657052067,Zr: 0.6667; Co: 0.1111; Sn: 0.2222
mp-1078832,ZrGaNi,"Ga, Ni, Zr",3,0.0,Hexagonal,189,P-62m,0.0,False,True,0.2531578339473003,Zr: 0.3333; Ga: 0.3333; Ni: 0.3333
mp-1207263,Zr6FeSn2,"Fe, Sn, Zr",3,0.0,Hexagonal,189,P-62m,0.0,True,True,0.2788114102204854,Zr: 0.6667; Fe: 0.1111; Sn: 0.2222
mp-1080624,YInCu,"Cu, In, Y",3,0.0,Hexagonal,189,P-62m,0.0,False,True,0.2963481436119049,Y: 0.3333; In: 0.3333; Cu: 0.3333
mp-1079361,YAlCu,"Al, Cu, Y",3,0.0,Hexagonal,189,P-62m,0.0,False,True,0.2786076492528915,Y: 0.3333; Al: 0.3333; Cu: 0.3333
mp-1181237,HfAlPt,"Al, Hf, Pt",3,0.006087738888886918,Hexagonal,189,P-62m,0.0,False,True,0.40898247721224756,Hf: 0.3333; Al: 0.3333; Pt: 0.3333
mp-12510,LaSnPd,"La, Pd, Sn",3,0.0,Hexagonal,189,P-62m,0.0,False,True,0.4722522866246623,La: 0.3333; Sn: 0.3333; Pd: 0.3333
mp-1205369,YPdPb,"Pb, Pd, Y",3,0.0,Hexagonal,189,P-62m,0.0,False,True,0.49546835306494497,Y: 0.3333; Pd: 0.3333; Pb: 0.3333
mp-1206477,Hf6Al2Ni,"Al, Hf, Ni",3,0.0,Hexagonal,189,P-62m,0.0,True,True,0.20981473309141618,Hf: 0.6667; Al: 0.2222; Ni: 0.1111
mp-13171,YMgCu,"Cu, Mg, Y",3,0.0,Hexagonal,189,P-62m,0.0,False,True,0.3015883876338005,Y: 0.3333; Mg: 0.3333; Cu: 0.3333
mp-31347,YInRh,"In, Rh, Y",3,0.0,Hexagonal,189,P-62m,0.0,False,True,0.4329742101634537,Y: 0.3333; In: 0.3333; Rh: 0.3333
mp-1078827,YSnRh,"Rh, Sn, Y",3,0.0,Hexagonal,189,P-62m,0.0,False,True,0.4439219150556397,Y: 0.3333; Sn: 0.3333; Rh: 0.3333
mp-1216216,YNi3Sn2,"Ni, Sn, Y",3,0.008269539419192284,Hexagonal,189,P-62m,0.0,True,True,0.2655445139499005,Y: 0.1667; Ni: 0.5000; Sn: 0.3333
mp-1206046,Zr6CoBi2,"Bi, Co, Zr",3,0.0,Hexagonal,189,P-62m,0.0,True,True,0.3056545294250106,Zr: 0.6667; Co: 0.1111; Bi: 0.2222
mp-19740,YInPt,"In, Pt, Y",3,0.0,Hexagonal,189,P-62m,0.0,False,True,0.4329742101634537,Y: 0.3333; In: 0.3333; Pt: 0.3333
mp-1079155,Hf6Al2Pt,"Al, Hf, Pt",3,0.0,Hexagonal,189,P-62m,0.0,False,True,0.31058288490363034,Hf: 0.6667; Al: 0.2222; Pt: 0.1111
mp-1078593,LaInNi,"In, La, Ni",3,0.0,Hexagonal,189,P-62m,0.0,False,True,0.35518383346593285,La: 0.3333; In: 0.3333; Ni: 0.3333