material_id,formula,elements,num_elements,energy_above_hull,crystal_system,spacegroup_number,spacegroup_symbol,band_gap,theoretical,is_metal
mp-1023270,Mg6AlGa,"Al, Ga, Mg",3,0.06032870526041734,Orthorhombic,38,Amm2,0.0,True,True
mp-1228791,Ba36Al9Sn23,"Al, Ba, Sn",3,0.010711448639706855,Orthorhombic,38,Amm2,0.0,True,True
mp-1028360,LiMg14Ni,"Li, Mg, Ni",3,0.07969972770833356,Orthorhombic,38,Amm2,0.0,True,True
mp-1227265,Ca2PtAu,"Au, Ca, Pt",3,0.0,Orthorhombic,38,Amm2,0.0,True,True
mp-1026861,LiLaMg14,"La, Li, Mg",3,0.08759844156250018,Orthorhombic,38,Amm2,0.0,True,True
mp-1028247,YMg14Ni,"Mg, Ni, Y",3,0.08856766484375056,Orthorhombic,38,Amm2,0.0,True,True
mp-1021281,NaLiMg6,"Li, Mg, Na",3,0.0785493333477012,Orthorhombic,38,Amm2,0.0,True,True
mp-1228374,Al5FeNi,"Al, Fe, Ni",3,0.037798949761903344,Orthorhombic,38,Amm2,0.0,True,True
mp-1028187,CaMg14Cu,"Ca, Cu, Mg",3,0.08463792421875005,Orthorhombic,38,Amm2,0.0,True,True
mp-1028223,LiMg14Al,"Al, Li, Mg",3,0.04001149437500007,Orthorhombic,38,Amm2,0.0,True,True
mp-1220492,NbAlCo,"Al, Co, Nb",3,0.048148003166664566,Orthorhombic,38,Amm2,0.0,True,True
mp-1223377,La2CoSn4,"Co, La, Sn",3,0.012667471285713994,Orthorhombic,38,Amm2,0.0,True,True
mp-1215346,ZrAlCr,"Al, Cr, Zr",3,0.0834556655555545,Orthorhombic,38,Amm2,0.0,True,True
mp-1023262,Mg6AlBi,"Al, Bi, Mg",3,0.08573397619791612,Orthorhombic,38,Amm2,0.0,True,True
mp-1217200,Ti2Mn3V,"Mn, Ti, V",3,0.022869821244443145,Orthorhombic,38,Amm2,0.0,True,True
mp-1026450,Mg14CdBi,"Bi, Cd, Mg",3,0.05549846765624955,Orthorhombic,38,Amm2,0.0,True,True
mp-1218074,TaAlCu,"Al, Cu, Ta",3,0.014911570000002428,Orthorhombic,38,Amm2,0.0,True,True
mp-1022813,LiYMg6,"Li, Mg, Y",3,0.09553677687499951,Orthorhombic,38,Amm2,0.0,True,True
mp-1215317,ZrAlOs,"Al, Os, Zr",3,0.025457287916665905,Orthorhombic,38,Amm2,0.0,True,True
mp-1220482,NbAlCr,"Al, Cr, Nb",3,0.04571459980000192,Orthorhombic,38,Amm2,0.0,True,True
mp-1022597,LiMg6Zn,"Li, Mg, Zn",3,0.05936317562499993,Orthorhombic,38,Amm2,0.0,True,True
mp-1215281,ZrNbV,"Nb, V, Zr",3,0.02156834916666739,Orthorhombic,38,Amm2,0.0,True,True
mp-1021403,LiMg6Sn,"Li, Mg, Sn",3,0.06339297906249985,Orthorhombic,38,Amm2,0.0,True,True
mp-1021408,NaMg6Sn,"Mg, Na, Sn",3,0.09280878687499983,Orthorhombic,38,Amm2,0.0,True,True
mp-1028138,Mg14MnZn,"Mg, Mn, Zn",3,0.08984557947931071,Orthorhombic,38,Amm2,0.0,True,True
mp-1027999,Mg14ZnCu,"Cu, Mg, Zn",3,0.07357197312500019,Orthorhombic,38,Amm2,0.0,True,True
mp-1028246,Mg14AlGa,"Al, Ga, Mg",3,0.04078822638020885,Orthorhombic,38,Amm2,0.0,True,True
mp-1026641,LiMg14Ti,"Li, Mg, Ti",3,0.0914088172916665,Orthorhombic,38,Amm2,0.0,True,True
mp-1224642,HfAlFe,"Al, Fe, Hf",3,0.0,Orthorhombic,38,Amm2,0.0,True,True
mp-1017291,NaMg6Cd,"Cd, Mg, Na",3,0.06970663670258626,Orthorhombic,38,Amm2,0.0,True,True
mp-1216913,TiMnAl,"Al, Mn, Ti",3,0.056383866666667615,Orthorhombic,38,Amm2,0.0,True,True
mp-1223426,La2Sn4Ir,"Ir, La, Sn",3,0.03841844208928791,Orthorhombic,38,Amm2,0.0,True,True
mp-1028176,CaMg14Sn,"Ca, Mg, Sn",3,0.08502874500000002,Orthorhombic,38,Amm2,0.0,True,True
mp-1028194,LiCaMg14,"Ca, Li, Mg",3,0.06335587281249988,Orthorhombic,38,Amm2,0.0,True,True
mp-1021278,LiMg6Ga,"Ga, Li, Mg",3,0.05405362974999939,Orthorhombic,38,Amm2,0.0,True,True
mp-1218063,TaCrNi,"Cr, Ni, Ta",3,0.06988949900000208,Orthorhombic,38,Amm2,0.0,True,True
mp-1026407,Mg14GaBi,"Bi, Ga, Mg",3,0.06321431015624968,Orthorhombic,38,Amm2,0.0,True,True
mp-1023295,NaMg6Al,"Al, Mg, Na",3,0.09534168821300337,Orthorhombic,38,Amm2,0.0,True,True
mp-1217171,TiAlFe,"Al, Fe, Ti",3,0.0711630999999997,Orthorhombic,38,Amm2,0.0,True,True
mp-1023399,LiMg6Al,"Al, Li, Mg",3,0.060514206874999976,Orthorhombic,38,Amm2,0.0,True,True
mp-1026771,LiHfMg14,"Hf, Li, Mg",3,0.09278466375000027,Orthorhombic,38,Amm2,0.0,True,True
mp-1220500,NbAlNi,"Al, Nb, Ni",3,0.012097076508771565,Orthorhombic,38,Amm2,0.0,True,True
mp-1215286,ZrMnFe,"Fe, Mn, Zr",3,0.013933219166672117,Orthorhombic,38,Amm2,0.0,True,True
mp-1220484,NbAlCu,"Al, Cu, Nb",3,0.0,Orthorhombic,38,Amm2,0.0,True,True
mp-1219292,ScZnCu,"Cu, Sc, Zn",3,0.007689837916665887,Orthorhombic,38,Amm2,0.0,True,True
mp-1028030,YMg14Cd,"Cd, Mg, Y",3,0.049953535000000215,Orthorhombic,38,Amm2,0.0,True,True
mp-1028273,NaMg14Sn,"Mg, Na, Sn",3,0.0506346981250001,Orthorhombic,38,Amm2,0.0,True,True
mp-1022050,Mg6GaCu,"Cu, Ga, Mg",3,0.09903157718750011,Orthorhombic,38,Amm2,0.0,True,True
mp-1027953,YMg14Bi,"Bi, Mg, Y",3,0.08428219812499993,Orthorhombic,38,Amm2,0.0,True,True
mp-1026653,NaMg14Cd,"Cd, Mg, Na",3,0.05245437897629324,Orthorhombic,38,Amm2,0.0,True,True
mp-1216946,TiMnCr,"Cr, Mn, Ti",3,0.0,Orthorhombic,38,Amm2,0.0,True,True
mp-1099299,Mg6CdSn,"Cd, Mg, Sn",3,0.060431923124999454,Orthorhombic,38,Amm2,0.0,True,True
mp-1216127,YAlNi,"Al, Ni, Y",3,0.07563611777777712,Orthorhombic,38,Amm2,0.0,True,True
mp-1023398,Mg6AlSn,"Al, Mg, Sn",3,0.06825984338541646,Orthorhombic,38,Amm2,0.0,True,True
mp-1022134,LiMg6Cu,"Cu, Li, Mg",3,0.07802602052083252,Orthorhombic,38,Amm2,0.0,True,True
mp-1216414,VCrCo,"Co, Cr, V",3,0.0978972424074076,Orthorhombic,38,Amm2,0.0,True,True
mp-1224488,HfAlFe,"Al, Fe, Hf",3,0.02134626583332988,Orthorhombic,38,Amm2,0.0,True,True
mp-1026506,Mg14CrCd,"Cd, Cr, Mg",3,0.09792481531250008,Orthorhombic,38,Amm2,0.0,True,True
mp-1028168,CaMg14Zr,"Ca, Mg, Zr",3,0.0857181021875002,Orthorhombic,38,Amm2,0.0,True,True
mp-1028078,Mg14MnBi,"Bi, Mg, Mn",3,0.08969099684806014,Orthorhombic,38,Amm2,0.0,True,True
mp-1022844,YMg6Sn,"Mg, Sn, Y",3,0.09680577823863512,Orthorhombic,38,Amm2,0.0,True,True
mp-1022110,LiMg6Cu,"Cu, Li, Mg",3,0.08084828114583331,Orthorhombic,38,Amm2,0.0,True,True
mp-1215305,ZrCrCo,"Co, Cr, Zr",3,0.026843250000002428,Orthorhombic,38,Amm2,0.0,True,True
mp-1026841,NaLiMg14,"Li, Mg, Na",3,0.053258909903017404,Orthorhombic,38,Amm2,0.0,True,True
mp-1026762,LaMg14Ga,"Ga, La, Mg",3,0.08780284635416669,Orthorhombic,38,Amm2,0.0,True,True
mp-1026897,Mg14GaCu,"Cu, Ga, Mg",3,0.06055507984375019,Orthorhombic,38,Amm2,0.0,True,True
mp-1026410,Mg14CrSn,"Cr, Mg, Sn",3,0.09510029250000018,Orthorhombic,38,Amm2,0.0,True,True
mp-1215315,ZrMnNi,"Mn, Ni, Zr",3,0.042726079583331966,Orthorhombic,38,Amm2,0.0,True,True
mp-1219393,ScAlCo,"Al, Co, Sc",3,0.010345527499998397,Orthorhombic,38,Amm2,0.0,True,True
mp-1027871,Mg14CuNi,"Cu, Mg, Ni",3,0.09244472541666693,Orthorhombic,38,Amm2,0.0,True,True
mp-1215326,ZrAlRh,"Al, Rh, Zr",3,0.034173570037311585,Orthorhombic,38,Amm2,0.0,True,True
mp-1224402,HfAlMo,"Al, Hf, Mo",3,0.0,Orthorhombic,38,Amm2,0.0,True,True
mp-1023143,CaMg6Cd,"Ca, Cd, Mg",3,0.07907051875000026,Orthorhombic,38,Amm2,0.0,True,True
mp-1218708,Sr2PtAu,"Au, Pt, Sr",3,0.0,Orthorhombic,38,Amm2,0.0,True,True
mp-1028202,Mg14AlZn,"Al, Mg, Zn",3,0.04029391104270852,Orthorhombic,38,Amm2,0.0,True,True
mp-1216998,Zr5Ti5Pb6,"Pb, Ti, Zr",3,0.0,Orthorhombic,38,Amm2,0.0,True,True
mp-1215259,ZrTiPt,"Pt, Ti, Zr",3,0.06710438305555755,Orthorhombic,38,Amm2,0.0,True,True
mp-1228855,CsRb2Au7,"Au, Cs, Rb",3,0.0,Orthorhombic,38,Amm2,0.0,True,True
mp-1028329,Mg14NiBi,"Bi, Mg, Ni",3,0.08767751067708329,Orthorhombic,38,Amm2,0.0,True,True
mp-1227330,Ca2GaSn,"Ca, Ga, Sn",3,0.021129061761361534,Orthorhombic,38,Amm2,0.0,True,True
mp-1219358,ScAlFe,"Al, Fe, Sc",3,0.0,Orthorhombic,38,Amm2,0.0,True,True
mp-1017055,Mg6CdGa,"Cd, Ga, Mg",3,0.05538549562499995,Orthorhombic,38,Amm2,0.0,True,True
mp-1216085,Y3(ZnAu2)2,"Au, Y, Zn",3,0.0,Orthorhombic,38,Amm2,0.0,True,True
mp-1017287,NaMg6Cd,"Cd, Mg, Na",3,0.06939084232758619,Orthorhombic,38,Amm2,0.0,True,True
mp-1208999,ScAgSn,"Ag, Sc, Sn",3,0.0,Orthorhombic,46,Ima2,0.0,True,True
mp-570879,CaCuSn,"Ca, Cu, Sn",3,0.0,Orthorhombic,44,Imm2,0.0,False,True
mp-1071278,CaSnAu,"Au, Ca, Sn",3,0.012978114166666721,Orthorhombic,44,Imm2,0.0,False,True
mp-1216062,YCr5Fe7,"Cr, Fe, Y",3,0.04744911999999779,Orthorhombic,44,Imm2,0.0,True,True
mp-1216017,YAl7Cu5,"Al, Cu, Y",3,0.0,Orthorhombic,44,Imm2,0.0,True,True
mp-1216026,YFe11Re,"Fe, Re, Y",3,0.018152233557696462,Orthorhombic,44,Imm2,0.0,True,True
mp-1215338,ZrAl5Cu7,"Al, Cu, Zr",3,0.0,Orthorhombic,44,Imm2,0.0,True,True
mp-1215964,YAl7Fe5,"Al, Fe, Y",3,0.011885873076927567,Orthorhombic,44,Imm2,0.0,True,True
mp-1216077,Y4ZnGa3,"Ga, Y, Zn",3,0.020726358125000566,Orthorhombic,44,Imm2,0.0,True,True
mp-1215991,YTiCo11,"Co, Ti, Y",3,0.012407157988167938,Orthorhombic,44,Imm2,0.0,True,True
mp-1218541,Sr3CaSn16,"Ca, Sn, Sr",3,0.018539021999999683,Orthorhombic,44,Imm2,0.0,True,True
mp-1215844,YVFe11,"Fe, V, Y",3,0.002489990769234396,Orthorhombic,44,Imm2,0.0,True,True
mp-1217136,Ti8Al15Rh7,"Al, Rh, Ti",3,0.0,Orthorhombic,44,Imm2,0.0,True,True
mp-1216176,Y(CrFe3)3,"Cr, Fe, Y",3,0.023090213846153063,Orthorhombic,44,Imm2,0.0,True,True
mp-1224670,Hf2ScGa3,"Ga, Hf, Sc",3,0.019179103888891547,Orthorhombic,44,Imm2,0.0,True,True
mp-1216008,YFe11Mo,"Fe, Mo, Y",3,0.009258552307692014,Orthorhombic,44,Imm2,0.0,True,True
mp-1223510,KBiPb,"Bi, K, Pb",3,0.0,Orthorhombic,44,Imm2,0.0,True,True
mp-1216029,YCrFe11,"Cr, Fe, Y",3,0.005168920769234475,Orthorhombic,44,Imm2,0.0,True,True
mp-1216222,YIn7Cu5,"Cu, In, Y",3,0.05692323626373508,Orthorhombic,44,Imm2,0.0,True,True
mp-1222838,LaYNi10,"La, Ni, Y",3,0.0018046083333338458,Orthorhombic,47,Pmmm,0.0,True,True
mp-1224927,Fe3Ni3Pt2,"Fe, Ni, Pt",3,0.0077131649999957475,Orthorhombic,47,Pmmm,0.0,True,True
mp-1229114,Al(V4Sn)3,"Al, Sn, V",3,0.0035472793750024323,Orthorhombic,47,Pmmm,0.0,True,True
mp-1216496,V9Ga2Sn,"Ga, Sn, V",3,0.010609642500000405,Orthorhombic,47,Pmmm,0.0,True,True
mp-1222997,Li3LaGa8,"Ga, La, Li",3,0.08677557552083393,Orthorhombic,47,Pmmm,0.0,True,True
mp-1225978,La2(InSn)3,"In, La, Sn",3,0.0,Orthorhombic,47,Pmmm,0.0,True,True
mp-1218875,Sr2(AlAg)5,"Ag, Al, Sr",3,0.0,Orthorhombic,47,Pmmm,0.0,True,True
mp-1223251,La2(TlPb)3,"La, Pb, Tl",3,0.0035900800000021604,Orthorhombic,47,Pmmm,0.0,True,True
mp-1217768,Ta2(PdRu)3,"Pd, Ru, Ta",3,0.025227116249997295,Orthorhombic,47,Pmmm,0.0,True,True
mp-1223249,La2(TlSn)3,"La, Sn, Tl",3,0.0,Orthorhombic,47,Pmmm,0.0,True,True
mp-1216214,Y2(CoCu)5,"Co, Cu, Y",3,0.09576031295752063,Orthorhombic,47,Pmmm,0.0,True,True
mp-1215586,Zr2(PdRh)3,"Pd, Rh, Zr",3,0.03486794187499953,Orthorhombic,47,Pmmm,0.0,True,True
mp-1218977,Sn2(PdPt)3,"Pd, Pt, Sn",3,0.0,Orthorhombic,47,Pmmm,0.0,True,True
mp-1222814,LaYCo10,"Co, La, Y",3,0.030007761666662525,Orthorhombic,47,Pmmm,0.0,True,True
mp-1216238,Y2(InSn)3,"In, Sn, Y",3,0.026659823437499952,Orthorhombic,47,Pmmm,0.0,True,True
mp-1216156,Y2(CuNi)5,"Cu, Ni, Y",3,0.0,Orthorhombic,47,Pmmm,0.0,True,True
mp-1227788,Ca2(TlPb)3,"Ca, Pb, Tl",3,0.0,Orthorhombic,47,Pmmm,0.0,True,True
mp-1229051,Al3NiMo12,"Al, Mo, Ni",3,0.04783933874999846,Orthorhombic,47,Pmmm,0.0,True,True
mp-1220758,Nb12IrAu3,"Au, Ir, Nb",3,0.01212051906250089,Orthorhombic,47,Pmmm,0.0,True,True
mp-1221007,Nb12InSn3,"In, Nb, Sn",3,0.011671361874999064,Orthorhombic,47,Pmmm,0.0,True,True
mp-1223263,La2(CoNi)5,"Co, La, Ni",3,0.0914685887500033,Orthorhombic,47,Pmmm,0.0,True,True
mp-1213339,CuSnPd2,"Cu, Pd, Sn",3,0.05267876020833384,Orthorhombic,47,Pmmm,0.0,True,True
mp-1220944,Nb12Al3In,"Al, In, Nb",3,0.044235223000001156,Orthorhombic,47,Pmmm,0.0,True,True
mp-1228971,AlV9Au2,"Al, Au, V",3,0.0,Orthorhombic,47,Pmmm,0.0,True,True
mp-1223431,La2(SnPb)3,"La, Pb, Sn",3,0.009601549999997516,Orthorhombic,47,Pmmm,0.0,True,True
mp-1215412,Zr2(ZnGa)3,"Ga, Zn, Zr",3,0.0,Orthorhombic,47,Pmmm,0.0,True,True
mp-1223292,La2(CuNi)5,"Cu, La, Ni",3,0.00020041250000701893,Orthorhombic,47,Pmmm,0.0,True,True
mp-1220742,Nb12Al3Ga,"Al, Ga, Nb",3,0.04778538909375385,Orthorhombic,47,Pmmm,0.0,True,True
mp-1216252,Y2(InPb)3,"In, Pb, Y",3,0.029196923749999826,Orthorhombic,47,Pmmm,0.0,True,True
mp-1105163,CuSnPd2,"Cu, Pd, Sn",3,0.06326251124999871,Orthorhombic,47,Pmmm,0.0,False,True
mp-1224715,Fe2(PdAu)3,"Au, Fe, Pd",3,0.07414851333333417,Orthorhombic,47,Pmmm,0.0,True,True
mp-1216167,Y2(CoNi)5,"Co, Ni, Y",3,0.07848108008546273,Orthorhombic,47,Pmmm,0.0,True,True
mp-1211555,LaGa4Os,"Ga, La, Os",3,0.0,Orthorhombic,51,Pmma,0.0,True,True
mp-21220,CaIn4Rh,"Ca, In, Rh",3,0.0,Orthorhombic,51,Pmma,0.0,False,True
mp-1079716,YInCo2,"Co, In, Y",3,0.020639252058823665,Orthorhombic,51,Pmma,0.0,False,True
mp-646125,Y5Mg8Cu5,"Cu, Mg, Y",3,0.0007760661458315887,Orthorhombic,51,Pmma,0.0,False,True
mp-21207,LaInNi2,"In, La, Ni",3,0.0,Orthorhombic,51,Pmma,0.0,False,True
mp-867851,Rb2TlAu3,"Au, Rb, Tl",3,0.0,Orthorhombic,51,Pmma,0.0,False,True
mp-21901,SrIn4Ir,"In, Ir, Sr",3,0.0,Orthorhombic,51,Pmma,0.0,False,True
mp-20838,CaIn4Ir,"Ca, In, Ir",3,0.0,Orthorhombic,51,Pmma,0.0,False,True
mp-639150,BaIn4Ir,"Ba, In, Ir",3,0.0011990578703739985,Orthorhombic,51,Pmma,0.0,False,True
mp-12274,LaAl4Co,"Al, Co, La",3,0.0,Orthorhombic,51,Pmma,0.0,False,True
mp-1214332,BaSrBi3,"Ba, Bi, Sr",3,0.0,Orthorhombic,52,Pnna,0.0,True,True
mp-1219142,Sc3Ga5Ni,"Ga, Ni, Sc",3,0.09051628430555425,Monoclinic,5,C2,0.0,True,True
mp-1223136,La8(BiPb)3,"Bi, La, Pb",3,0.004914662499996503,Monoclinic,5,C2,0.0,True,True
mp-1222199,Na20Zn8Sn11,"Na, Sn, Zn",3,0.0,Monoclinic,5,C2,0.023199999999999665,True,False
mp-606675,MnGaNi2,"Ga, Mn, Ni",3,0.0030700194642836465,Orthorhombic,58,Pnnm,0.0,False,True
mp-1224933,La2(InCu3)3,"Cu, In, La",3,0.021249301964287426,Orthorhombic,58,Pnnm,0.0,True,True
mp-1194481,Sr3Sn3Au8,"Au, Sn, Sr",3,0.0,Orthorhombic,58,Pnnm,0.0,False,True
mp-1203883,LaInCu5,"Cu, In, La",3,0.0,Orthorhombic,58,Pnnm,0.0,False,True
mp-18500,K3Sn4Au,"Au, K, Sn",3,0.0,Orthorhombic,59,Pmmn,0.3972000000000002,False,False
mp-570936,K(SnAu)3,"Au, K, Sn",3,0.0,Orthorhombic,59,Pmmn,0.0,False,True
mp-1191828,Zr3(CrGa3)2,"Cr, Ga, Zr",3,0.053876493181817864,Orthorhombic,59,Pmmn,0.0,False,True
mp-1079193,TiCuNi2,"Cu, Ni, Ti",3,0.021118203437501037,Orthorhombic,59,Pmmn,0.0,False,True
mp-12759,Zn2CuAu,"Au, Cu, Zn",3,0.0,Orthorhombic,59,Pmmn,0.0,False,True
mp-581716,Sr(InAu)3,"Au, In, Sr",3,0.0,Orthorhombic,59,Pmmn,0.0,False,True
mp-637052,Hf3(MnGa3)2,"Ga, Hf, Mn",3,0.0,Orthorhombic,59,Pmmn,0.0,False,True
mp-1190672,Hf3(CrGa3)2,"Cr, Ga, Hf",3,0.02315127613636392,Orthorhombic,59,Pmmn,0.0,False,True
mp-1190467,K6ZnBi5,"Bi, K, Zn",3,0.0,Orthorhombic,59,Pmmn,0.0,False,True
mp-1183951,Cs3Pb4Au,"Au, Cs, Pb",3,0.0,Orthorhombic,59,Pmmn,0.7054,True,False
mp-17401,Rb3Sn4Au,"Au, Rb, Sn",3,0.0,Orthorhombic,59,Pmmn,0.5812999999999997,False,False
mp-608081,Rb3Pb4Au,"Au, Pb, Rb",3,0.07623411820312587,Orthorhombic,59,Pmmn,0.15739999999999998,False,False
mp-1201536,K12Sn4Au21,"Au, K, Sn",3,0.0,Orthorhombic,59,Pmmn,0.0,False,True
mp-1181655,Cs3Sn4Au,"Au, Cs, Sn",3,0.04230318751762496,Orthorhombic,59,Pmmn,0.7143999999999999,True,False
mp-1191025,Zr3(MnGa3)2,"Ga, Mn, Zr",3,0.0,Orthorhombic,59,Pmmn,0.0,False,True
mp-607848,La(In2Ni)3,"In, La, Ni",3,0.015141099500000088,Orthorhombic,59,Pmmn,0.0,False,True
mp-1191713,Hf3(VGa3)2,"Ga, Hf, V",3,0.0,Orthorhombic,59,Pmmn,0.0,False,True
mp-18645,Sc5(In2Rh)2,"In, Rh, Sc",3,0.0,Orthorhombic,55,Pbam,0.0,False,True
mp-30447,Sr9Cd4Bi9,"Bi, Cd, Sr",3,0.0,Orthorhombic,55,Pbam,0.0,False,True
mp-510052,Hf5(In2Rh)2,"Hf, In, Rh",3,0.0,Orthorhombic,55,Pbam,0.0,False,True
mp-30446,Ca9Cd4Bi9,"Bi, Ca, Cd",3,0.0,Orthorhombic,55,Pbam,0.0,False,True
mp-640825,Sr5(InBi3)2,"Bi, In, Sr",3,0.0,Orthorhombic,55,Pbam,0.0,False,True
mp-1198475,La(Ga4Fe)2,"Fe, Ga, La",3,0.016666343409089457,Orthorhombic,55,Pbam,0.0,False,True
mp-1079757,La2InNi2,"In, La, Ni",3,0.013184175000000131,Orthorhombic,55,Pbam,0.0,False,True
mp-1190710,Sc5(In2Co)2,"Co, In, Sc",3,0.0,Orthorhombic,55,Pbam,0.0,False,True
mp-1202535,Ca(Al4Ni)2,"Al, Ca, Ni",3,0.0013025745454564586,Orthorhombic,55,Pbam,0.0,False,True
mp-1194987,Sr(In4Ir)2,"In, Ir, Sr",3,0.0,Orthorhombic,55,Pbam,0.0,False,True
mp-17871,Ca(Al4Co)2,"Al, Ca, Co",3,0.0,Orthorhombic,55,Pbam,0.0,False,True
mp-632693,Zr5(In2Rh)2,"In, Rh, Zr",3,0.0,Orthorhombic,55,Pbam,0.0,False,True
mp-21756,Sr(In4Rh)2,"In, Rh, Sr",3,0.0,Orthorhombic,55,Pbam,0.0,False,True
mp-28088,Ca5(AlBi3)2,"Al, Bi, Ca",3,0.008484822179484652,Orthorhombic,55,Pbam,0.0,False,True
mp-980936,Y5(In2Pd)2,"In, Pd, Y",3,0.0,Orthorhombic,55,Pbam,0.0,False,True
mp-1194906,La(Al4Fe)2,"Al, Fe, La",3,0.0,Orthorhombic,55,Pbam,0.0,False,True
mp-1198298,YMnSn2,"Mn, Sn, Y",3,0.06875089947557367,Orthorhombic,55,Pbam,0.0,False,True
mp-1106017,La2InNi2,"In, La, Ni",3,0.0,Orthorhombic,55,Pbam,0.0,False,True
mp-27262,Ca9Zn4Bi9,"Bi, Ca, Zn",3,0.0,Orthorhombic,55,Pbam,0.0,False,True
mp-31278,Ca3(Bi2Pd)4,"Bi, Ca, Pd",3,0.0,Orthorhombic,55,Pbam,0.0,False,True
mp-607853,Na8In6Au11,"Au, In, Na",3,0.0,Orthorhombic,57,Pbcm,0.0,False,True
mp-21529,La3(GaNi)2,"Ga, La, Ni",3,0.0,Orthorhombic,57,Pbcm,0.0,False,True
mp-31479,Ca3(GaPt)2,"Ca, Ga, Pt",3,0.0,Orthorhombic,57,Pbcm,0.0,False,True
mp-571039,CaAlPd,"Al, Ca, Pd",3,0.0,Orthorhombic,57,Pbcm,0.0,False,True
mp-1211591,La3(GaRh)2,"Ga, La, Rh",3,0.0,Orthorhombic,57,Pbcm,0.0,True,True
mp-31480,Ca3(GaPd)2,"Ca, Ga, Pd",3,0.0,Orthorhombic,57,Pbcm,0.0,False,True
mp-638141,LiSn5Rh3,"Li, Rh, Sn",3,0.0,Orthorhombic,57,Pbcm,0.0,False,True
mp-31486,K2SnBi,"Bi, K, Sn",3,0.0,Orthorhombic,57,Pbcm,0.0,False,True
mp-640340,Ca4MgAl3,"Al, Ca, Mg",3,0.0,Orthorhombic,57,Pbcm,0.0,False,True
mp-1210443,Na5(ZnSn5)2,"Na, Sn, Zn",3,0.017167318733029457,Orthorhombic,60,Pbcn,0.0,True,True
mp-1210474,Na5(Sn5Hg)2,"Hg, Na, Sn",3,0.016013538382349424,Orthorhombic,60,Pbcn,0.0,True,True
mp-1227574,Ca4Cd3Au5,"Au, Ca, Cd",3,0.0,Monoclinic,6,Pm,0.0,True,True
mp-675046,Rb28(Mg3In17)3,"In, Mg, Rb",3,0.0,Monoclinic,6,Pm,0.0,True,True
mp-1216255,Y2(AlNi)5,"Al, Ni, Y",3,0.0,Monoclinic,6,Pm,0.0,True,True
mp-1227493,Bi3Pt2Pb,"Bi, Pb, Pt",3,0.0053914802777761395,Monoclinic,6,Pm,0.0,True,True
mp-1216388,Zr18Co5Sn4,"Co, Sn, Zr",3,0.0,Monoclinic,6,Pm,0.0,True,True
mp-1225487,K3(InAu)8,"Au, In, K",3,0.030670742819549623,Monoclinic,6,Pm,0.0,True,True
mp-1228603,Al3Ga3Ni10,"Al, Ga, Ni",3,0.0,Monoclinic,6,Pm,0.0,True,True
mp-1225844,Cu(Bi4Ir)3,"Bi, Cu, Ir",3,0.021225048541666958,Monoclinic,6,Pm,0.0,True,True
mp-1227658,BaSr3Ag4,"Ag, Ba, Sr",3,0.007500831906248617,Monoclinic,6,Pm,0.0,True,True
mp-1216513,V9Ga4Fe3,"Fe, Ga, V",3,0.0,Monoclinic,6,Pm,0.0,True,True
mp-1218586,Sr3CaAg4,"Ag, Ca, Sr",3,0.011413427447916291,Monoclinic,6,Pm,0.0,True,True
mp-1228028,Ba3SrAg4,"Ag, Ba, Sr",3,0.004892858968747582,Monoclinic,6,Pm,0.0,True,True
mp-1218804,Sr4In17Au15,"Au, In, Sr",3,0.033906903680558376,Monoclinic,6,Pm,0.0,True,True
mp-1222586,Na3In2Bi3,"Bi, In, Na",3,0.05156221197916677,Monoclinic,6,Pm,0.0,True,True
mp-1219336,Sr10In17Au27,"Au, In, Sr",3,0.0,Monoclinic,6,Pm,0.0,True,True
mp-1221266,Sc15(In5Rh2)4,"In, Rh, Sc",3,0.0,Monoclinic,6,Pm,0.0,True,True
mp-645719,Ca4In3Au10,"Au, Ca, In",3,0.0,Orthorhombic,64,Cmce,0.0,False,True
mp-1215155,Ba21(Cd2Bi9)2,"Ba, Bi, Cd",3,0.0,Orthorhombic,64,Cmce,0.31489999999999974,True,False
mp-1203938,Y2Ni7Sn3,"Ni, Sn, Y",3,0.0001953439393895806,Orthorhombic,64,Cmce,0.0,False,True
mp-640159,V2GaSn2,"Ga, Sn, V",3,0.0182343138333394,Orthorhombic,64,Cmce,0.0,False,True
mp-583645,BaCaSn3,"Ba, Ca, Sn",3,0.001525398249998755,Orthorhombic,64,Cmce,0.0,False,True
mp-1211389,La4Mg3Ag10,"Ag, La, Mg",3,0.0,Orthorhombic,64,Cmce,0.0,True,True
mp-568744,Ba2Cd3Bi4,"Ba, Bi, Cd",3,0.0014474527777768031,Orthorhombic,64,Cmce,0.0,False,True
mp-1200661,K(NaIn3)3,"In, K, Na",3,0.006878029432939581,Orthorhombic,64,Cmce,0.0,False,True
mp-1211232,LaAl3Ni2,"Al, La, Ni",3,0.0,Orthorhombic,63,Cmcm,0.0,True,True
mp-1205365,La2Zn5Sn,"La, Sn, Zn",3,0.0,Orthorhombic,63,Cmcm,0.0,False,True
mp-1105849,La2Zn5Pb,"La, Pb, Zn",3,0.0,Orthorhombic,63,Cmcm,0.0,False,True
mp-1190471,Ba(Sn2Ru)3,"Ba, Ru, Sn",3,0.0,Orthorhombic,63,Cmcm,0.0,False,True
mp-11200,LaMg2Ni,"La, Mg, Ni",3,0.0,Orthorhombic,63,Cmcm,0.0,False,True
mp-672336,Li5Ca7Sn11,"Ca, Li, Sn",3,0.04173740130434744,Orthorhombic,63,Cmcm,0.0,False,True
mp-1210648,Mg2MnGa3,"Ga, Mg, Mn",3,0.0,Orthorhombic,63,Cmcm,0.0,True,True
mp-16493,YAl2Co,"Al, Co, Y",3,0.0,Orthorhombic,63,Cmcm,0.0,False,True
mp-867362,K2SrIn7,"In, K, Sr",3,0.011787258444444504,Orthorhombic,63,Cmcm,0.0,False,True
mp-21352,NaIn2Au,"Au, In, Na",3,0.0,Orthorhombic,63,Cmcm,0.0,False,True