material_id,formula,elements,num_elements,energy_above_hull,crystal_system,spacegroup_number,spacegroup_symbol,band_gap,theoretical,is_metal
mp-1102603,YGaNi,"Ga, Ni, Y",3,0.0,Orthorhombic,62,Pnma,0.0,False,True
mp-20001,SrSnPt,"Pt, Sn, Sr",3,0.0,Orthorhombic,62,Pnma,0.0,False,True
mp-1095476,LaSnPd,"La, Pd, Sn",3,0.019223651944442643,Orthorhombic,62,Pnma,0.0,False,True
mp-1095587,LaGaPt,"Ga, La, Pt",3,0.0,Orthorhombic,62,Pnma,0.0,False,True
mp-21981,YNiSn2,"Ni, Sn, Y",3,0.0,Orthorhombic,62,Pnma,0.0,False,True
mp-11265,BaCaSn,"Ba, Ca, Sn",3,0.0,Orthorhombic,62,Pnma,0.24370000000000003,False,False
mp-1095628,YSnPd,"Pd, Sn, Y",3,0.0,Orthorhombic,62,Pnma,0.0,False,True
mp-31071,Ba2Tl7Au,"Au, Ba, Tl",3,0.0031806469166655305,Orthorhombic,62,Pnma,0.0,False,True
mp-1103033,SrMgPt,"Mg, Pt, Sr",3,0.0,Orthorhombic,62,Pnma,0.0,False,True
mp-1101867,ZrCuSn,"Cu, Sn, Zr",3,0.0,Orthorhombic,62,Pnma,0.0,False,True
mp-22617,YNiSn,"Ni, Sn, Y",3,0.0,Orthorhombic,62,Pnma,0.0,False,True
mp-1102040,CaSnPt,"Ca, Pt, Sn",3,0.0,Orthorhombic,62,Pnma,0.0,False,True
mp-1101774,YSnIr,"Ir, Sn, Y",3,0.0,Orthorhombic,62,Pnma,0.0,False,True
mp-22284,SrInPt,"In, Pt, Sr",3,0.0,Orthorhombic,62,Pnma,0.0,False,True
mp-1103046,CaCdPt,"Ca, Cd, Pt",3,0.0,Orthorhombic,62,Pnma,0.0,False,True
mp-4864,CaMgSn,"Ca, Mg, Sn",3,0.0,Orthorhombic,62,Pnma,0.0,False,True
mp-620571,CaInPd,"Ca, In, Pd",3,0.0,Orthorhombic,62,Pnma,0.0,False,True
mp-607230,Ca3Ga3Rh2,"Ca, Ga, Rh",3,0.0,Orthorhombic,62,Pnma,0.0,False,True
mp-570525,LaZnRh,"La, Rh, Zn",3,0.0,Orthorhombic,62,Pnma,0.0,False,True
mp-1102073,SrCdPt,"Cd, Pt, Sr",3,0.0,Orthorhombic,62,Pnma,0.0,False,True
mp-2647077,NaCdBi,"Bi, Cd, Na",3,0.0,Orthorhombic,62,Pnma,0.0,True,True
mp-569186,LaMgRh,"La, Mg, Rh",3,0.0,Orthorhombic,62,Pnma,0.0,False,True
mp-1189429,LaGaPd2,"Ga, La, Pd",3,0.0,Orthorhombic,62,Pnma,0.0,False,True
mp-1200384,Hf3(VGa2)2,"Ga, Hf, V",3,0.0,Orthorhombic,62,Pnma,0.0,False,True
mp-3076,LaSnPt,"La, Pt, Sn",3,0.022980189444444576,Orthorhombic,62,Pnma,0.0,False,True
mp-20220,CaInRh,"Ca, In, Rh",3,0.0,Orthorhombic,62,Pnma,0.0,False,True
mp-12613,LaNiSn,"La, Ni, Sn",3,0.0,Orthorhombic,62,Pnma,0.0,False,True
mp-21774,Ca2Sn5Pt3,"Ca, Pt, Sn",3,0.0,Orthorhombic,62,Pnma,0.0,False,True
mp-20726,SrCaSn,"Ca, Sn, Sr",3,0.0,Orthorhombic,62,Pnma,0.2881999999999998,False,False
mp-1102662,CaMgPd,"Ca, Mg, Pd",3,0.0,Orthorhombic,62,Pnma,0.0,False,True
mp-1211543,LaAlRh,"Al, La, Rh",3,0.0,Orthorhombic,62,Pnma,0.0,True,True
mp-568424,CaAlAu,"Al, Au, Ca",3,0.0,Orthorhombic,62,Pnma,0.0,False,True
mp-22275,YSnPt,"Pt, Sn, Y",3,0.0,Orthorhombic,62,Pnma,0.0,False,True
mp-1193123,La(Sn2Rh)2,"La, Rh, Sn",3,0.0,Orthorhombic,62,Pnma,0.0,False,True
mp-1102631,CaAlPt,"Al, Ca, Pt",3,0.0,Orthorhombic,62,Pnma,0.0,False,True
mp-606503,Ca3InAu3,"Au, Ca, In",3,0.0,Orthorhombic,62,Pnma,0.0,False,True
mp-1213983,CaBiPd,"Bi, Ca, Pd",3,0.0,Orthorhombic,62,Pnma,0.0,True,True
mp-20378,CaInAu,"Au, Ca, In",3,0.0,Orthorhombic,62,Pnma,0.0,False,True
mp-1207608,YZnRh,"Rh, Y, Zn",3,0.0,Orthorhombic,62,Pnma,0.0,True,True
mp-569501,LiCaBi,"Bi, Ca, Li",3,0.0,Orthorhombic,62,Pnma,0.5790000000000002,False,False
mp-22529,SrInAu,"Au, In, Sr",3,0.0,Orthorhombic,62,Pnma,0.0,False,True
mp-11253,NaSnAu,"Au, Na, Sn",3,0.0,Orthorhombic,62,Pnma,0.0,False,True
mp-1105752,CaCd2Pd,"Ca, Cd, Pd",3,0.0,Orthorhombic,62,Pnma,0.0,False,True
mp-1213948,CaZnPd,"Ca, Pd, Zn",3,0.0,Orthorhombic,62,Pnma,0.0,True,True
mp-30701,Sc3(Ga3Fe)2,"Fe, Ga, Sc",3,0.01572643269480256,Orthorhombic,62,Pnma,0.0,False,True
mp-1101778,LaAlAu,"Al, Au, La",3,0.0,Orthorhombic,62,Pnma,0.0,False,True
mp-31152,CaGaPt,"Ca, Ga, Pt",3,0.0,Orthorhombic,62,Pnma,0.0,False,True
mp-630875,Ca2In4Au3,"Au, Ca, In",3,0.0051999299999963,Orthorhombic,62,Pnma,0.0,False,True
mp-1191527,CsGa2Au3,"Au, Cs, Ga",3,0.0,Orthorhombic,62,Pnma,0.0,False,True
mp-570556,Sr(InAu)2,"Au, In, Sr",3,0.0,Orthorhombic,62,Pnma,0.0,False,True
mp-1102860,CaPdPb,"Ca, Pb, Pd",3,0.002862954166670484,Orthorhombic,62,Pnma,0.0,False,True
mp-1102101,ScCoSn,"Co, Sc, Sn",3,0.0015300864880920528,Orthorhombic,62,Pnma,0.0,False,True
mp-1203073,HfCrGa2,"Cr, Ga, Hf",3,0.03269105124999783,Orthorhombic,62,Pnma,0.0,False,True
mp-1103172,CaCdPd,"Ca, Cd, Pd",3,0.0,Orthorhombic,62,Pnma,0.0,False,True
mp-1190136,SrAl2Au3,"Al, Au, Sr",3,0.0,Orthorhombic,62,Pnma,0.0,False,True
mp-567368,Zr3(VGa2)2,"Ga, V, Zr",3,0.023666857453704893,Orthorhombic,62,Pnma,0.0,False,True
mp-1102926,YGaCo,"Co, Ga, Y",3,0.0,Orthorhombic,62,Pnma,0.0,False,True
mp-574176,Ba(InAu)2,"Au, Ba, In",3,0.0,Orthorhombic,62,Pnma,0.0,False,True
mp-1204826,Hf3(CrGa2)2,"Cr, Ga, Hf",3,0.03660405324074034,Orthorhombic,62,Pnma,0.0,False,True
mp-31281,SrSnAu,"Au, Sn, Sr",3,0.0,Orthorhombic,62,Pnma,0.0,False,True
mp-1102214,BaCaPb,"Ba, Ca, Pb",3,0.0,Orthorhombic,62,Pnma,0.21520000000000028,False,False
mp-21166,SrCaPb,"Ca, Pb, Sr",3,0.0,Orthorhombic,62,Pnma,0.2677999999999998,False,False
mp-1095513,SrCdAu,"Au, Cd, Sr",3,0.0,Orthorhombic,62,Pnma,0.0,False,True
mp-5186,ScNiSn,"Ni, Sc, Sn",3,0.008884626666667117,Orthorhombic,62,Pnma,0.0,False,True
mp-20846,CaIn2Ir,"Ca, In, Ir",3,0.0,Orthorhombic,62,Pnma,0.0,False,True
mp-1191301,RbGa2Au3,"Au, Ga, Rb",3,0.0,Orthorhombic,62,Pnma,0.0,False,True
mp-30437,CaSnPd,"Ca, Pd, Sn",3,0.0,Orthorhombic,62,Pnma,0.0,False,True
mp-1102763,LaZnPd,"La, Pd, Zn",3,0.0,Orthorhombic,62,Pnma,0.0,False,True
mp-1095522,YZnPd,"Pd, Y, Zn",3,0.0,Orthorhombic,62,Pnma,0.0,False,True
mp-1193382,Zn3(SnRu)2,"Ru, Sn, Zn",3,0.0,Orthorhombic,62,Pnma,0.0,False,True
mp-570689,CaInPt,"Ca, In, Pt",3,0.0,Orthorhombic,62,Pnma,0.0,False,True
mp-1209007,SrIn5Au3,"Au, In, Sr",3,0.02848219342592584,Orthorhombic,62,Pnma,0.0,True,True
mp-1103307,CaPtPb,"Ca, Pb, Pt",3,0.0,Orthorhombic,62,Pnma,0.0,False,True
mp-11811,CaGaAu,"Au, Ca, Ga",3,0.0,Orthorhombic,62,Pnma,0.0,False,True
mp-1197835,HfMnGa2,"Ga, Hf, Mn",3,0.0,Orthorhombic,62,Pnma,0.0,False,True
mp-1103353,YGaPt,"Ga, Pt, Y",3,0.0,Orthorhombic,62,Pnma,0.0,False,True
mp-1095478,YAlPt,"Al, Pt, Y",3,0.0,Orthorhombic,62,Pnma,0.0,False,True
mp-569628,CaCdAu,"Au, Ca, Cd",3,0.0,Orthorhombic,62,Pnma,0.0,False,True
mp-1102458,YGaRh,"Ga, Rh, Y",3,0.0,Orthorhombic,62,Pnma,0.0,False,True
mp-31481,Ca3Ga3Ir2,"Ca, Ga, Ir",3,0.0,Orthorhombic,62,Pnma,0.0,False,True
mp-1207691,YCu5Sn,"Cu, Sn, Y",3,0.009430028571420834,Orthorhombic,62,Pnma,0.0,True,True
mp-1214064,CaIn2Rh,"Ca, In, Rh",3,0.0,Orthorhombic,62,Pnma,0.0,True,True
mp-861738,CaMgPb,"Ca, Mg, Pb",3,0.0,Orthorhombic,62,Pnma,0.0,False,True
mp-1211431,LaCu5Sn,"Cu, La, Sn",3,0.0,Orthorhombic,62,Pnma,0.0,True,True
mp-1185647,Mg16Al12Ag,"Ag, Al, Mg",3,0.006108371034483362,Monoclinic,8,Cm,0.0,True,True
mp-1185744,Mg17Al11Rh,"Al, Mg, Rh",3,0.032399453915231025,Monoclinic,8,Cm,0.0,True,True
mp-1218678,Sr3(AlIn2)2,"Al, In, Sr",3,0.04386208111110923,Monoclinic,8,Cm,0.0,True,True
mp-30461,BiPd2Pb,"Bi, Pb, Pd",3,0.0,Monoclinic,8,Cm,0.0,False,True
mp-865352,Mg17Al11Pd,"Al, Mg, Pd",3,0.010378739157687278,Monoclinic,8,Cm,0.0,True,True
mp-1216416,Y3(Fe8Mo)4,"Fe, Mo, Y",3,0.009148594871792426,Monoclinic,8,Cm,0.0,True,True
mp-865489,Mg17Al11Ag,"Ag, Al, Mg",3,0.0058160354454033225,Monoclinic,8,Cm,0.0,True,True
mp-1185691,Mg16Al12Pt,"Al, Mg, Pt",3,0.023694496923491126,Monoclinic,8,Cm,0.0,True,True
mp-1229050,Al18Co5Ni3,"Al, Co, Ni",3,0.01024430925480857,Monoclinic,8,Cm,0.0,True,True
mp-1185743,Mg17Al11Pt,"Al, Mg, Pt",3,0.016180839265445446,Monoclinic,8,Cm,0.0,True,True
mp-1185652,Mg16Al12Cd,"Al, Cd, Mg",3,0.007142262068965621,Monoclinic,8,Cm,0.0,True,True
mp-1218850,Sr2CdAu3,"Au, Cd, Sr",3,0.012487361666664754,Monoclinic,8,Cm,0.0,True,True
mp-1185738,Mg17Al11Au,"Al, Au, Mg",3,0.011945876522988286,Monoclinic,8,Cm,0.0,True,True
mp-1185737,Mg17Al11Cd,"Al, Cd, Mg",3,0.008832872499999755,Monoclinic,8,Cm,0.0,True,True
mp-1185739,Mg17Al11Hg,"Al, Hg, Mg",3,0.011103156580460904,Monoclinic,8,Cm,0.0,True,True
mp-1185781,Mg17Al11Zn,"Al, Mg, Zn",3,0.004241649052299401,Monoclinic,8,Cm,0.0,True,True
mp-973924,Li(Mg4Al3)4,"Al, Li, Mg",3,0.0045165537212654705,Monoclinic,8,Cm,0.0,True,True
mp-1185682,Mg16Al12Pb,"Al, Mg, Pb",3,0.01830424034482725,Monoclinic,8,Cm,0.0,True,True
mp-1228719,Al37(Fe6Cu)2,"Al, Cu, Fe",3,0.0,Monoclinic,8,Cm,0.0,True,True
mp-1227685,Ca2Zn3Ag,"Ag, Ca, Zn",3,0.0025954199999969063,Monoclinic,8,Cm,0.0,True,True
mp-1185721,Mg16Al12Zn,"Al, Mg, Zn",3,0.00632221491724172,Monoclinic,8,Cm,0.0,True,True
mp-1228416,Ba2AlIn3,"Al, Ba, In",3,0.01684514037878726,Monoclinic,8,Cm,0.0,True,True
mp-1185664,Mg16Al12Ga,"Al, Ga, Mg",3,0.007736208189655258,Monoclinic,8,Cm,0.0,True,True
mp-976925,Na(Mg4Al3)4,"Al, Mg, Na",3,0.017110408917956565,Monoclinic,8,Cm,0.0,True,True
mp-1215776,Zr2Ga3Co,"Co, Ga, Zr",3,0.055523978499995685,Monoclinic,8,Cm,0.0,True,True
mp-1218865,Sr2Al3In,"Al, In, Sr",3,0.012600441250000927,Monoclinic,8,Cm,0.0,True,True
mp-1227803,BaSn2Bi,"Ba, Bi, Sn",3,0.013383921041665747,Monoclinic,8,Cm,0.0,True,True
mp-1185740,Mg17Al11Ga,"Al, Ga, Mg",3,0.0031933899999998516,Monoclinic,8,Cm,0.0,True,True
mp-1228188,Ba4Tl13Hg3,"Ba, Hg, Tl",3,0.0,Monoclinic,8,Cm,0.0,True,True
mp-1185675,Mg16Al12Hg,"Al, Hg, Mg",3,0.014002066149426451,Monoclinic,8,Cm,0.0,True,True
mp-1228509,Ba2In3Au,"Au, Ba, In",3,0.03114462833333409,Monoclinic,8,Cm,0.0,True,True
mp-1227660,Ca2ZnGa3,"Ca, Ga, Zn",3,0.0,Monoclinic,8,Cm,0.0,True,True
mp-1226684,La2In11Ni15,"In, La, Ni",3,0.031130784515306154,Monoclinic,8,Cm,0.0,True,True
mp-1224520,Hf3(Ga2Cu)2,"Cu, Ga, Hf",3,0.008348731111101237,Monoclinic,8,Cm,0.0,True,True
mp-1224958,La4TaCo33,"Co, La, Ta",3,0.020812724122808213,Monoclinic,8,Cm,0.0,True,True
mp-1223946,Hf2Ga3Ni,"Ga, Hf, Ni",3,0.033438147916665883,Monoclinic,8,Cm,0.0,True,True
mp-1228405,Ba2AlGa3,"Al, Ba, Ga",3,0.014287971666665733,Monoclinic,8,Cm,0.0,True,True
mp-1226994,Mg2Co3Sn10,"Co, Mg, Sn",3,0.013528144666667075,Monoclinic,8,Cm,0.0,True,True
mp-1185679,Mg16Al12In,"Al, In, Mg",3,0.010845891034483301,Monoclinic,8,Cm,0.0,True,True
mp-1223908,Hf2Ga3Cu,"Cu, Ga, Hf",3,0.0,Monoclinic,8,Cm,0.0,True,True
mp-1216196,Y3Ga8Ni3,"Ga, Ni, Y",3,0.04337493000000148,Monoclinic,8,Cm,0.0,True,True
mp-1227871,Ca3(CdGa2)2,"Ca, Cd, Ga",3,0.019391918333329983,Monoclinic,8,Cm,0.0,True,True
mp-1215639,Zr2Ga3Cu,"Cu, Ga, Zr",3,0.0,Monoclinic,8,Cm,0.0,True,True
mp-1218414,Sr2Zn3Cd,"Cd, Sr, Zn",3,0.010070965000001264,Monoclinic,8,Cm,0.0,True,True
mp-1185714,Mg16Al12Tl,"Al, Mg, Tl",3,0.01322595844827612,Monoclinic,8,Cm,0.0,True,True
mp-1185741,Mg17Al11In,"Al, In, Mg",3,0.01178784732758631,Monoclinic,8,Cm,0.0,True,True
mp-1219537,Sc3(Ga4Fe5)4,"Fe, Ga, Sc",3,0.01905965824786371,Monoclinic,8,Cm,0.0,True,True
mp-1185747,Mg17Al11Sn,"Al, Mg, Sn",3,0.015286267672415033,Monoclinic,8,Cm,0.0,True,True
mp-1185736,Mg16ZrAl12,"Al, Mg, Zr",3,0.05027216840517257,Monoclinic,8,Cm,0.0,True,True
mp-1215689,Zr2Ga3Ni,"Ga, Ni, Zr",3,0.021265596648154528,Monoclinic,8,Cm,0.0,True,True
mp-1227717,Ca2In3Cu,"Ca, Cu, In",3,0.025175520666666173,Monoclinic,8,Cm,0.0,True,True
mp-1185686,Mg16Al12Pd,"Al, Mg, Pd",3,0.014513391643319107,Monoclinic,8,Cm,0.0,True,True
mp-1185742,Mg17Al11Pb,"Al, Mg, Pb",3,0.0169180169827583,Monoclinic,8,Cm,0.0,True,True
mp-1185731,Mg16ScAl12,"Al, Mg, Sc",3,0.03785282219827657,Monoclinic,8,Cm,0.0,True,True
mp-1224165,Hf2Ga3Co,"Co, Ga, Hf",3,0.06214357263888459,Monoclinic,8,Cm,0.0,True,True
mp-1185759,Mg17Al11Tl,"Al, Mg, Tl",3,0.013501961293103992,Monoclinic,8,Cm,0.0,True,True
mp-1185468,LiMg17Al11,"Al, Li, Mg",3,0.01521335502873633,Monoclinic,8,Cm,0.0,True,True
mp-1218528,Sr3(Cd2Ga)2,"Cd, Ga, Sr",3,0.024998300555556074,Monoclinic,8,Cm,0.0,True,True
mp-1227661,Ca2Zn3Ga,"Ca, Ga, Zn",3,0.0,Monoclinic,8,Cm,0.0,True,True
mp-1185711,Mg16Al12Sn,"Al, Mg, Sn",3,0.019034676551725305,Monoclinic,8,Cm,0.0,True,True
mp-2646994,Zr4CuPd,"Cu, Pd, Zr",3,0.01647482000000089,Tetragonal,97,I422,0.0,True,True
mp-1219939,PdPb4Au,"Au, Pb, Pd",3,0.010110481666664839,Tetragonal,97,I422,0.0,True,True
mp-1219917,PdRhPb4,"Pb, Pd, Rh",3,0.010741129166667918,Tetragonal,97,I422,0.0,True,True
mp-1225052,FeCoSn4,"Co, Fe, Sn",3,0.041272525416666817,Tetragonal,97,I422,0.0,True,True
mp-1215379,Zr4CoNi,"Co, Ni, Zr",3,0.006031905000000393,Tetragonal,97,I422,0.0,True,True
mp-1215371,Zr4CuNi,"Cu, Ni, Zr",3,0.015410249166667,Tetragonal,97,I422,0.0,True,True
mp-1217989,Ta4CoNi,"Co, Ni, Ta",3,0.0,Tetragonal,97,I422,0.0,True,True
mp-1221689,MnCoSn4,"Co, Mn, Sn",3,0.024704077255747414,Tetragonal,97,I422,0.0,True,True
mp-1215366,Zr4FeNi,"Fe, Ni, Zr",3,0.019898161166667094,Tetragonal,97,I422,0.0,True,True
mp-1221751,MnFeSn4,"Fe, Mn, Sn",3,0.02031957451149502,Tetragonal,97,I422,0.0,True,True
mp-1215368,Zr4FeCo,"Co, Fe, Zr",3,0.012710010666665994,Tetragonal,97,I422,0.0,True,True
mp-1217228,Ti4Al11Ni,"Al, Ni, Ti",3,0.052130193828125115,Tetragonal,99,P4mm,0.0,True,True
mp-1223808,In2SnPb,"In, Pb, Sn",3,0.033704317916665616,Tetragonal,99,P4mm,0.0,True,True
mp-1223239,La2Al7Cu,"Al, Cu, La",3,0.0,Tetragonal,99,P4mm,0.0,True,True
mp-1227436,Ca2Ga7Au,"Au, Ca, Ga",3,0.0,Tetragonal,99,P4mm,0.0,True,True
mp-1223761,La2Ga7Au,"Au, Ga, La",3,0.0,Tetragonal,99,P4mm,0.0,True,True
mp-1224480,Hf3ScGa12,"Ga, Hf, Sc",3,0.00926240687499913,Tetragonal,99,P4mm,0.0,True,True
mp-1224496,Hf4ZnGa11,"Ga, Hf, Zn",3,0.011997508437499249,Tetragonal,99,P4mm,0.0,True,True
mp-1215487,Zr3NbAl12,"Al, Nb, Zr",3,0.026707245000000768,Tetragonal,99,P4mm,0.0,True,True
mp-1217109,Ti4Al11Zn,"Al, Ti, Zn",3,0.013886058125000211,Tetragonal,99,P4mm,0.0,True,True
mp-1221662,MnAl2Cr3,"Al, Cr, Mn",3,0.0,Tetragonal,99,P4mm,0.0,True,True
mp-1215384,Zr3TiCu2,"Cu, Ti, Zr",3,0.013652058333333272,Tetragonal,99,P4mm,0.0,True,True