material_id,formula,elements,num_elements,energy_above_hull,crystal_system,spacegroup_number,spacegroup_symbol,band_gap,theoretical,is_metal,electronegativity_difference,atomic_concentrations
mp-864988,Mn2AlCr,"Al, Cr, Mn",3,0.0,Cubic,225,Fm-3m,0.0,True,True,0.04602988159880488,Mn: 0.5000; Al: 0.2500; Cr: 0.2500
mp-1185454,LiScIn2,"In, Li, Sc",3,0.026789203249995452,Cubic,225,Fm-3m,0.0,True,True,0.3332791622649097,Li: 0.2500; Sc: 0.2500; In: 0.5000
mp-867163,Sr2AgPt,"Ag, Pt, Sr",3,0.06673884124999674,Cubic,225,Fm-3m,0.0,True,True,0.5906087960740172,Sr: 0.5000; Ag: 0.2500; Pt: 0.2500
mp-865152,MgAlPd2,"Al, Mg, Pd",3,0.0,Cubic,225,Fm-3m,0.0,True,True,0.3849025850783546,Mg: 0.2500; Al: 0.2500; Pd: 0.5000
mp-1184976,Li2CdAg,"Ag, Cd, Li",3,0.011126892500000096,Cubic,225,Fm-3m,0.0,True,True,0.4235858826731599,Li: 0.5000; Cd: 0.2500; Ag: 0.2500
mp-1185014,La2MgAl,"Al, La, Mg",3,0.017585935625000992,Cubic,225,Fm-3m,0.0,True,True,0.20892582415776179,La: 0.5000; Mg: 0.2500; Al: 0.2500
mp-864670,Ta2VOs,"Os, Ta, V",3,0.0,Cubic,225,Fm-3m,0.0,True,True,0.2892555098870202,Ta: 0.5000; V: 0.2500; Os: 0.2500
mp-1183512,Ca2TlSn,"Ca, Sn, Tl",3,0.005924823749998254,Cubic,225,Fm-3m,0.0,True,True,0.41288618286399464,Ca: 0.5000; Tl: 0.2500; Sn: 0.2500
mp-1187869,YScZn2,"Sc, Y, Zn",3,0.013767085000000456,Cubic,225,Fm-3m,0.0,True,True,0.18668154702594464,Y: 0.2500; Sc: 0.2500; Zn: 0.5000
mp-866165,YMgRh2,"Mg, Rh, Y",3,0.0,Cubic,225,Fm-3m,0.0,True,True,0.508496558493762,Y: 0.2500; Mg: 0.2500; Rh: 0.5000
mp-867255,LiZn2Au,"Au, Li, Zn",3,0.0,Cubic,225,Fm-3m,0.0,True,True,0.5542788107081129,Li: 0.2500; Zn: 0.5000; Au: 0.2500
mp-1183607,Ca2PbAu,"Au, Ca, Pb",3,0.020668900000000878,Cubic,225,Fm-3m,0.0,True,True,0.7213312345933732,Ca: 0.5000; Pb: 0.2500; Au: 0.2500
mp-5419,LiGa2Ir,"Ga, Ir, Li",3,0.0,Cubic,225,Fm-3m,0.0,False,True,0.44514042728109976,Li: 0.2500; Ga: 0.5000; Ir: 0.2500
mp-1186932,Sc2AgPt,"Ag, Pt, Sc",3,0.006450313125000662,Cubic,225,Fm-3m,0.0,True,True,0.3925159232438856,Sc: 0.5000; Ag: 0.2500; Pt: 0.2500
mp-867927,LiVIr2,"Ir, Li, V",3,0.0,Cubic,225,Fm-3m,0.0,True,True,0.5030593901320202,Li: 0.2500; V: 0.2500; Ir: 0.5000
mp-1184055,GaFeRu2,"Fe, Ga, Ru",3,0.0,Cubic,225,Fm-3m,0.0,True,True,0.19013153341831548,Ga: 0.2500; Fe: 0.2500; Ru: 0.5000
mp-862334,Sc2IrRh,"Ir, Rh, Sc",3,0.002684155000000743,Cubic,225,Fm-3m,0.0,True,True,0.440908153700972,Sc: 0.5000; Ir: 0.2500; Rh: 0.2500
mp-5159,LiGa2Pd,"Ga, Li, Pd",3,0.0,Cubic,225,Fm-3m,0.0,False,True,0.44514042728109976,Li: 0.2500; Ga: 0.5000; Pd: 0.2500
mp-5538,YSnPd2,"Pd, Sn, Y",3,0.0,Cubic,225,Fm-3m,0.0,False,True,0.4018395202067612,Y: 0.2500; Sn: 0.2500; Pd: 0.5000
mp-1184997,KRbAu2,"Au, K, Rb",3,0.012535035312496667,Cubic,225,Fm-3m,0.0947,True,False,0.86,K: 0.2500; Rb: 0.2500; Au: 0.5000
mp-1187709,Y2ZnAu,"Au, Y, Zn",3,0.03259615500000024,Cubic,225,Fm-3m,0.0,True,True,0.5389051400756909,Y: 0.5000; Zn: 0.2500; Au: 0.2500
mp-636320,TiGaFe2,"Fe, Ga, Ti",3,0.0,Cubic,225,Fm-3m,0.0,False,True,0.12295832627357939,Ti: 0.2500; Ga: 0.2500; Fe: 0.5000
mp-864601,LiMg2Rh,"Li, Mg, Rh",3,0.0,Cubic,225,Fm-3m,0.0,True,True,0.4866723743957529,Li: 0.2500; Mg: 0.5000; Rh: 0.2500
mp-866115,Be2PdRh,"Be, Pd, Rh",3,0.0,Cubic,225,Fm-3m,0.0,True,True,0.33619190948028477,Be: 0.5000; Pd: 0.2500; Rh: 0.2500
mp-975608,Li2TlPt,"Li, Pt, Tl",3,0.020782237500000633,Cubic,225,Fm-3m,0.0,True,True,0.5382146411981004,Li: 0.5000; Tl: 0.2500; Pt: 0.2500
mp-867292,Ga2RuRh,"Ga, Rh, Ru",3,0.0,Cubic,225,Fm-3m,0.0,True,True,0.21685248442201435,Ga: 0.5000; Ru: 0.2500; Rh: 0.2500
mp-861639,Ti2CoIr,"Co, Ir, Ti",3,0.0,Cubic,225,Fm-3m,0.0,True,True,0.2744084546802449,Ti: 0.5000; Co: 0.2500; Ir: 0.2500
mp-974642,LiAg2Pb,"Ag, Li, Pb",3,0.01602720666666624,Cubic,225,Fm-3m,0.0,True,True,0.4967079121576382,Li: 0.2500; Ag: 0.5000; Pb: 0.2500
mp-864788,NbInRu2,"In, Nb, Ru",3,0.0,Cubic,225,Fm-3m,0.0,True,True,0.2628212320190285,Nb: 0.2500; In: 0.2500; Ru: 0.5000
mp-865515,YMgZn2,"Mg, Y, Zn",3,0.0,Cubic,225,Fm-3m,0.0,True,True,0.19511214723845358,Y: 0.2500; Mg: 0.2500; Zn: 0.5000
mp-865048,TiZnIr2,"Ir, Ti, Zn",3,0.0,Cubic,225,Fm-3m,0.0,True,True,0.30498975392625904,Ti: 0.2500; Zn: 0.2500; Ir: 0.5000
mp-1232420,LiMg2Ir,"Ir, Li, Mg",3,0.0,Cubic,225,Fm-3m,0.0,True,True,0.4534864937349293,Li: 0.2500; Mg: 0.5000; Ir: 0.2500
mp-865518,YSnRh2,"Rh, Sn, Y",3,0.0,Cubic,225,Fm-3m,0.0,True,True,0.4329838334164452,Y: 0.2500; Sn: 0.2500; Rh: 0.5000
mp-867813,LiLa2Os,"La, Li, Os",3,0.04574077750000072,Cubic,225,Fm-3m,0.0,True,True,0.49605947224098046,Li: 0.2500; La: 0.5000; Os: 0.2500
mp-1184958,Li2TlIn,"In, Li, Tl",3,0.010182938125002039,Cubic,225,Fm-3m,0.0,True,True,0.364417343165772,Li: 0.5000; Tl: 0.2500; In: 0.2500
mp-866088,Hf2CoTc,"Co, Hf, Tc",3,0.0,Cubic,225,Fm-3m,0.0,True,True,0.29508473359358994,Hf: 0.5000; Co: 0.2500; Tc: 0.2500
mp-1186121,NaCd2In,"Cd, In, Na",3,0.016103461382978024,Cubic,225,Fm-3m,0.0,True,True,0.3440475984511445,Na: 0.2500; Cd: 0.5000; In: 0.2500
mp-1183690,CrGaRh2,"Cr, Ga, Rh",3,0.0,Cubic,225,Fm-3m,0.0,True,True,0.2776125897721498,Cr: 0.2500; Ga: 0.2500; Rh: 0.5000
mp-865130,Hf2MoRh,"Hf, Mo, Rh",3,0.0,Cubic,225,Fm-3m,0.0,True,True,0.4619523784980438,Hf: 0.5000; Mo: 0.2500; Rh: 0.2500
mp-1185428,LiTi2Ir,"Ir, Li, Ti",3,0.006038900416668547,Cubic,225,Fm-3m,0.0,True,True,0.43205902374559896,Li: 0.2500; Ti: 0.5000; Ir: 0.2500
mp-972238,Ti2VIr,"Ir, Ti, V",3,0.0,Cubic,225,Fm-3m,0.0,True,True,0.2752612395525386,Ti: 0.5000; V: 0.2500; Ir: 0.2500
mp-5221,HfAlCo2,"Al, Co, Hf",3,0.0,Cubic,225,Fm-3m,0.0,False,True,0.23909987452945258,Hf: 0.2500; Al: 0.2500; Co: 0.5000
mp-1187926,ZnAgPd2,"Ag, Pd, Zn",3,0.04222629770833519,Cubic,225,Fm-3m,0.0,True,True,0.22765104875664433,Zn: 0.2500; Ag: 0.2500; Pd: 0.5000
mp-865123,MgGaPd2,"Ga, Mg, Pd",3,0.0,Cubic,225,Fm-3m,0.0,True,True,0.3655817282086183,Mg: 0.2500; Ga: 0.2500; Pd: 0.5000
mp-861909,CdGaRh2,"Cd, Ga, Rh",3,0.0,Cubic,225,Fm-3m,0.0,True,True,0.2683747380063928,Cd: 0.2500; Ga: 0.2500; Rh: 0.5000
mp-1183207,Ba2AgBi,"Ag, Ba, Bi",3,0.016990527500000407,Cubic,225,Fm-3m,0.05810000000000004,True,False,0.543432378498006,Ba: 0.5000; Ag: 0.2500; Bi: 0.2500
mp-4364,NbGaCo2,"Co, Ga, Nb",3,0.0,Cubic,225,Fm-3m,0.0,False,True,0.11475517417528494,Nb: 0.2500; Ga: 0.2500; Co: 0.5000
mp-972877,Sc2AlIr,"Al, Ir, Sc",3,0.029382904668803,Cubic,225,Fm-3m,0.0,True,True,0.34317451828479345,Sc: 0.5000; Al: 0.2500; Ir: 0.2500
mp-977407,Hf2ReRh,"Hf, Re, Rh",3,0.0,Cubic,225,Fm-3m,0.0,True,True,0.4172229619759678,Hf: 0.5000; Re: 0.2500; Rh: 0.2500
mp-866152,TiBeCo2,"Be, Co, Ti",3,0.0,Cubic,225,Fm-3m,0.0,True,True,0.1628457859448625,Ti: 0.2500; Be: 0.2500; Co: 0.5000
mp-865737,Li2InSn,"In, Li, Sn",3,0.0,Cubic,225,Fm-3m,0.0,True,True,0.4495275297465106,Li: 0.5000; In: 0.2500; Sn: 0.2500
mp-979267,Ta2FeMo,"Fe, Mo, Ta",3,0.0,Cubic,225,Fm-3m,0.0,True,True,0.2736215452043205,Ta: 0.5000; Fe: 0.2500; Mo: 0.2500
mp-1185368,LiMgIn2,"In, Li, Mg",3,0.0,Cubic,225,Fm-3m,0.0,True,True,0.33825840713868444,Li: 0.2500; Mg: 0.2500; In: 0.5000
mp-864916,Hf2TcRh,"Hf, Rh, Tc",3,0.0,Cubic,225,Fm-3m,0.0,True,True,0.4172229619759678,Hf: 0.5000; Tc: 0.2500; Rh: 0.2500
mp-977541,Hf2TcOs,"Hf, Os, Tc",3,0.0,Cubic,225,Fm-3m,0.0,True,True,0.3897114317029974,Hf: 0.5000; Tc: 0.2500; Os: 0.2500
mp-1186942,Sc2GaNi,"Ga, Ni, Sc",3,0.021547459374998468,Cubic,225,Fm-3m,0.0,True,True,0.2524876234590519,Sc: 0.5000; Ga: 0.2500; Ni: 0.2500
mp-973133,ScCuPd2,"Cu, Pd, Sc",3,0.027731918749999807,Cubic,225,Fm-3m,0.0,True,True,0.3430378987808782,Sc: 0.2500; Cu: 0.2500; Pd: 0.5000
mp-5921,TaAlNi2,"Al, Ni, Ta",3,0.01263121712500137,Cubic,225,Fm-3m,0.0,False,True,0.1817106215937857,Ta: 0.2500; Al: 0.2500; Ni: 0.5000
mp-1184648,HfZrFe2,"Fe, Hf, Zr",3,0.004519357499999543,Cubic,225,Fm-3m,0.0,True,True,0.25771835402237075,Hf: 0.2500; Zr: 0.2500; Fe: 0.5000
mp-866136,Zr6Al16Ru7,"Al, Ru, Zr",3,0.0005808895689654037,Cubic,225,Fm-3m,0.0,False,True,0.30513520131581867,Zr: 0.2069; Al: 0.5517; Ru: 0.2414
mp-865010,HfGaRu2,"Ga, Hf, Ru",3,0.0,Cubic,225,Fm-3m,0.0,True,True,0.3694844381026081,Hf: 0.2500; Ga: 0.2500; Ru: 0.5000
mp-865592,Y2ZnRu,"Ru, Y, Zn",3,0.0,Cubic,225,Fm-3m,0.0,True,True,0.40257763226488386,Y: 0.5000; Zn: 0.2500; Ru: 0.2500
mp-865870,LiZr2Os,"Li, Os, Zr",3,0.0,Cubic,225,Fm-3m,0.0,True,True,0.4504997225304363,Li: 0.2500; Zr: 0.5000; Os: 0.2500
mp-1187740,Y2MgHg,"Hg, Mg, Y",3,0.02176380499999997,Cubic,225,Fm-3m,0.0,True,True,0.3268313785425139,Y: 0.5000; Mg: 0.2500; Hg: 0.2500
mp-861961,TiZnRh2,"Rh, Ti, Zn",3,0.0,Cubic,225,Fm-3m,0.0,True,True,0.3447009573528915,Ti: 0.2500; Zn: 0.2500; Rh: 0.5000
mp-3574,MnAlCu2,"Al, Cu, Mn",3,0.040840364511494975,Cubic,225,Fm-3m,0.0,False,True,0.16140012391568967,Mn: 0.2500; Al: 0.2500; Cu: 0.5000
mp-867807,LiYTl2,"Li, Tl, Y",3,0.0,Cubic,225,Fm-3m,0.0,True,True,0.2734958866235469,Li: 0.2500; Y: 0.2500; Tl: 0.5000
mp-1185421,LiZnNi2,"Li, Ni, Zn",3,0.0,Cubic,225,Fm-3m,0.0,True,True,0.38028772002261657,Li: 0.2500; Zn: 0.2500; Ni: 0.5000
mp-977205,NaTl2Pd,"Na, Pd, Tl",3,0.014864715294109487,Cubic,225,Fm-3m,0.0,True,True,0.4498541430286044,Na: 0.2500; Tl: 0.5000; Pd: 0.2500
mp-977357,Ta2ReRu,"Re, Ru, Ta",3,0.0,Cubic,225,Fm-3m,0.0,True,True,0.29474565306378997,Ta: 0.5000; Re: 0.2500; Ru: 0.2500
mp-865469,Ti2MnRu,"Mn, Ru, Ti",3,0.0,Cubic,225,Fm-3m,0.0,True,True,0.28437431318598383,Ti: 0.5000; Mn: 0.2500; Ru: 0.2500
mp-867786,ScNbOs2,"Nb, Os, Sc",3,0.0,Cubic,225,Fm-3m,0.0,True,True,0.36986484017813864,Sc: 0.2500; Nb: 0.2500; Os: 0.5000
mp-865100,NaInHg2,"Hg, In, Na",3,0.0,Cubic,225,Fm-3m,0.0,True,True,0.4408160047003738,Na: 0.2500; In: 0.2500; Hg: 0.5000
mp-866188,TlCdRh2,"Cd, Rh, Tl",3,0.0,Cubic,225,Fm-3m,0.0,True,True,0.3134784681600954,Tl: 0.2500; Cd: 0.2500; Rh: 0.5000
mp-1183931,CsRbAu2,"Au, Cs, Rb",3,0.0074696575000032794,Cubic,225,Fm-3m,0.7103,True,False,0.8675648390754434,Cs: 0.2500; Rb: 0.2500; Au: 0.5000
mp-864991,Ca2AgPb,"Ag, Ca, Pb",3,0.0,Cubic,225,Fm-3m,0.0,True,True,0.5824302533351097,Ca: 0.5000; Ag: 0.2500; Pb: 0.2500
mp-1194136,Ti6Ga16Co7,"Co, Ga, Ti",3,0.043132956268473244,Cubic,225,Fm-3m,0.0,False,True,0.12143807354981828,Ti: 0.2069; Ga: 0.5517; Co: 0.2414
mp-983362,Hf2FeTc,"Fe, Hf, Tc",3,0.0,Cubic,225,Fm-3m,0.0,True,True,0.2835819987234732,Hf: 0.5000; Fe: 0.2500; Tc: 0.2500
mp-865247,GaFeIr2,"Fe, Ga, Ir",3,0.0,Cubic,225,Fm-3m,0.0,True,True,0.19013153341831548,Ga: 0.2500; Fe: 0.2500; Ir: 0.5000
mp-867897,ScTaRu2,"Ru, Sc, Ta",3,0.0,Cubic,225,Fm-3m,0.0,True,True,0.3881687777243296,Sc: 0.2500; Ta: 0.2500; Ru: 0.5000
mp-867172,SrMgTl2,"Mg, Sr, Tl",3,0.0,Cubic,225,Fm-3m,0.0,True,True,0.2760887538455705,Sr: 0.2500; Mg: 0.2500; Tl: 0.5000
mp-867803,LiCa2Cd,"Ca, Cd, Li",3,0.0,Cubic,225,Fm-3m,0.0,True,True,0.3017759930809606,Li: 0.2500; Ca: 0.5000; Cd: 0.2500
mp-1186966,Sc2ZnIn,"In, Sc, Zn",3,0.009273122499999786,Cubic,225,Fm-3m,0.0,True,True,0.183354165483089,Sc: 0.5000; Zn: 0.2500; In: 0.2500
mp-865131,Hf2OsRh,"Hf, Os, Rh",3,0.0,Cubic,225,Fm-3m,0.0,True,True,0.4708502946797421,Hf: 0.5000; Os: 0.2500; Rh: 0.2500
mp-1184559,HfScTc2,"Hf, Sc, Tc",3,0.07873941031250276,Cubic,225,Fm-3m,0.0,True,True,0.2857883832488647,Hf: 0.2500; Sc: 0.2500; Tc: 0.5000
mp-865888,TiSnRu2,"Ru, Sn, Ti",3,0.0,Cubic,225,Fm-3m,0.0,True,True,0.2695830113341715,Ti: 0.2500; Sn: 0.2500; Ru: 0.5000
mp-862622,BeRu2W,"Be, Ru, W",3,0.0,Cubic,225,Fm-3m,0.0,True,True,0.30301608868177277,Be: 0.2500; Ru: 0.5000; W: 0.2500
mp-865038,HfTaTc2,"Hf, Ta, Tc",3,0.0,Cubic,225,Fm-3m,0.0,True,True,0.2598076211353315,Hf: 0.2500; Ta: 0.2500; Tc: 0.5000
mp-1184586,Hf2CoOs,"Co, Hf, Os",3,0.0,Cubic,225,Fm-3m,0.0,True,True,0.3869108424430621,Hf: 0.5000; Co: 0.2500; Os: 0.2500
mp-867127,ScCdAg2,"Ag, Cd, Sc",3,0.0,Cubic,225,Fm-3m,0.0,True,True,0.23370654676324318,Sc: 0.2500; Cd: 0.2500; Ag: 0.5000
mp-1184005,GaCuNi2,"Cu, Ga, Ni",3,0.008674284375000951,Cubic,225,Fm-3m,0.0,True,True,0.04205650960315175,Ga: 0.2500; Cu: 0.2500; Ni: 0.5000
mp-1186209,Nb2TcRu,"Nb, Ru, Tc",3,0.0,Cubic,225,Fm-3m,0.0,True,True,0.248746859276655,Nb: 0.5000; Tc: 0.2500; Ru: 0.2500
mp-1185902,MgNbOs2,"Mg, Nb, Os",3,0.030100213611108373,Cubic,225,Fm-3m,0.0,True,True,0.386353141568695,Mg: 0.2500; Nb: 0.2500; Os: 0.5000
mp-1187097,Sr2PdPt,"Pd, Pt, Sr",3,0.056612417499999346,Cubic,225,Fm-3m,0.0,True,True,0.645619857191521,Sr: 0.5000; Pd: 0.2500; Pt: 0.2500
mp-1186772,Ta2CrRe,"Cr, Re, Ta",3,0.0,Cubic,225,Fm-3m,0.0,True,True,0.16370705543744896,Ta: 0.5000; Cr: 0.2500; Re: 0.2500
mp-1185360,LiMnIr2,"Ir, Li, Mn",3,0.017776398124999204,Cubic,225,Fm-3m,0.0,True,True,0.5090861911307358,Li: 0.2500; Mn: 0.2500; Ir: 0.5000
mp-1192479,Hf6Ga16Pd7,"Ga, Hf, Pd",3,0.04502991870689854,Cubic,225,Fm-3m,0.0,False,True,0.3006627637453176,Hf: 0.2069; Ga: 0.5517; Pd: 0.2414
mp-867197,LiGaNi2,"Ga, Li, Ni",3,0.0,Cubic,225,Fm-3m,0.0,True,True,0.3904084399702445,Li: 0.2500; Ga: 0.2500; Ni: 0.5000
mp-862339,Sc2GaAg,"Ag, Ga, Sc",3,0.012685692499999845,Cubic,225,Fm-3m,0.0,True,True,0.2585053190942112,Sc: 0.5000; Ga: 0.2500; Ag: 0.2500
mp-861954,LiTaRu2,"Li, Ru, Ta",3,0.0,Cubic,225,Fm-3m,0.0,True,True,0.514003891035856,Li: 0.2500; Ta: 0.2500; Ru: 0.5000
mp-1214241,Be15(Nb3Cu4)2,"Be, Cu, Nb",3,0.0,Cubic,225,Fm-3m,0.0,True,True,0.1257580321276859,Be: 0.6818; Nb: 0.1364; Cu: 0.1818
mp-1184979,Li2AgPb,"Ag, Li, Pb",3,0.014386744999993706,Cubic,225,Fm-3m,0.0,True,True,0.5921359641163506,Li: 0.5000; Ag: 0.2500; Pb: 0.2500
mp-972119,SrCaTl2,"Ca, Sr, Tl",3,0.009532575000001486,Cubic,225,Fm-3m,0.0,True,True,0.32298413273719817,Sr: 0.2500; Ca: 0.2500; Tl: 0.5000
mp-861900,LiGaAu2,"Au, Ga, Li",3,0.0,Cubic,225,Fm-3m,0.0,True,True,0.643326316887472,Li: 0.2500; Ga: 0.2500; Au: 0.5000
mp-867308,InCuPd2,"Cu, In, Pd",3,0.009444891249998477,Cubic,225,Fm-3m,0.0,True,True,0.18493242008906938,In: 0.2500; Cu: 0.2500; Pd: 0.5000
mp-568880,YInPd2,"In, Pd, Y",3,0.0,Cubic,225,Fm-3m,0.0,False,True,0.4021193852576621,Y: 0.2500; In: 0.2500; Pd: 0.5000
mp-862947,Ba2BiAu,"Au, Ba, Bi",3,0.0,Cubic,225,Fm-3m,0.4227999999999996,True,False,0.7189054179793055,Ba: 0.5000; Bi: 0.2500; Au: 0.2500
mp-861893,Li2LaPb,"La, Li, Pb",3,0.0,Cubic,225,Fm-3m,0.0,True,True,0.5693581912996423,Li: 0.5000; La: 0.2500; Pb: 0.2500
mp-865094,HfNbTc2,"Hf, Nb, Tc",3,0.0,Cubic,225,Fm-3m,0.0,True,True,0.24874685927665494,Hf: 0.2500; Nb: 0.2500; Tc: 0.5000
mp-867118,LaSnAu2,"Au, La, Sn",3,0.0,Cubic,225,Fm-3m,0.0,True,True,0.5894701010229442,La: 0.2500; Sn: 0.2500; Au: 0.5000
mp-862721,Sr2CdPb,"Cd, Pb, Sr",3,0.0,Cubic,225,Fm-3m,0.0,True,True,0.5762811813689565,Sr: 0.5000; Cd: 0.2500; Pb: 0.2500
mp-865548,TiInCo2,"Co, In, Ti",3,0.0,Cubic,225,Fm-3m,0.0,True,True,0.138924439894498,Ti: 0.2500; In: 0.2500; Co: 0.5000
mp-972960,La2IrAu,"Au, Ir, La",3,0.0571087125000016,Cubic,225,Fm-3m,0.0,True,True,0.6462778040440503,La: 0.5000; Ir: 0.2500; Au: 0.2500
mp-1186001,MnZnPd2,"Mn, Pd, Zn",3,0.0,Cubic,225,Fm-3m,0.0,True,True,0.3020761493398644,Mn: 0.2500; Zn: 0.2500; Pd: 0.5000
mp-1183274,Ba2MgIn,"Ba, In, Mg",3,0.00238541177174012,Cubic,225,Fm-3m,0.0,True,True,0.3672448093574639,Ba: 0.5000; Mg: 0.2500; In: 0.2500
mp-1185760,Mg2HgAu,"Au, Hg, Mg",3,0.0015440099999981527,Cubic,225,Fm-3m,0.0,True,True,0.5165752607316769,Mg: 0.5000; Hg: 0.2500; Au: 0.2500
mp-1187185,SrMgHg2,"Hg, Mg, Sr",3,0.005129312249998685,Cubic,225,Fm-3m,0.0,True,True,0.45323834789214384,Sr: 0.2500; Mg: 0.2500; Hg: 0.5000
mp-867275,BeVOs2,"Be, Os, V",3,0.0,Cubic,225,Fm-3m,0.0,True,True,0.3007490648364514,Be: 0.2500; V: 0.2500; Os: 0.5000
mp-976265,Hf2OsPd,"Hf, Os, Pd",3,0.034108613749992855,Cubic,225,Fm-3m,0.0,True,True,0.45000000000000007,Hf: 0.5000; Os: 0.2500; Pd: 0.2500
mp-2987,Li2MgTl,"Li, Mg, Tl",3,0.02466964500000124,Cubic,225,Fm-3m,0.0,False,True,0.2661179249881526,Li: 0.5000; Mg: 0.2500; Tl: 0.2500
mp-972907,Sc2AlAg,"Ag, Al, Sc",3,0.0,Cubic,225,Fm-3m,0.0,True,True,0.23414738947936184,Sc: 0.5000; Al: 0.2500; Ag: 0.2500
mp-1187433,Ti2MnTc,"Mn, Tc, Ti",3,0.01017455561666658,Cubic,225,Fm-3m,0.0,True,True,0.1544951455548037,Ti: 0.5000; Mn: 0.2500; Tc: 0.2500
mp-1187725,Y2TlZn,"Tl, Y, Zn",3,0.02660976291666728,Cubic,225,Fm-3m,0.0,True,True,0.20777090749188157,Y: 0.5000; Tl: 0.2500; Zn: 0.2500
mp-1185662,Mg2CdAg,"Ag, Cd, Mg",3,0.0253678254166676,Cubic,225,Fm-3m,0.0,True,True,0.26400757564888166,Mg: 0.5000; Cd: 0.2500; Ag: 0.2500
mp-1185422,LiZn2Ag,"Ag, Li, Zn",3,0.0,Cubic,225,Fm-3m,0.0,True,True,0.34974097558050016,Li: 0.2500; Zn: 0.5000; Ag: 0.2500
mp-982883,Na6Cd16Au7,"Au, Cd, Na",3,0.0,Cubic,225,Fm-3m,0.0,False,True,0.540002422155135,Na: 0.2069; Cd: 0.5517; Au: 0.2414
mp-1183167,AgPdAu2,"Ag, Au, Pd",3,0.0,Cubic,225,Fm-3m,0.0,True,True,0.2559663063764448,Ag: 0.2500; Pd: 0.2500; Au: 0.5000
mp-866024,Be2RhAu,"Au, Be, Rh",3,0.0,Cubic,225,Fm-3m,0.0,True,True,0.42994185653411315,Be: 0.5000; Rh: 0.2500; Au: 0.2500
mp-1186767,Ta2NbRe,"Nb, Re, Ta",3,0.0,Cubic,225,Fm-3m,0.0,True,True,0.16393596310755,Ta: 0.5000; Nb: 0.2500; Re: 0.2500
mp-11947,LiAlAg2,"Ag, Al, Li",3,0.0,Cubic,225,Fm-3m,0.0,False,True,0.3878385617753861,Li: 0.2500; Al: 0.2500; Ag: 0.5000
mp-864897,Zr2CuOs,"Cu, Os, Zr",3,0.0,Cubic,225,Fm-3m,0.0,True,True,0.3752998800959041,Zr: 0.5000; Cu: 0.2500; Os: 0.2500
mp-861658,LiMnPt2,"Li, Mn, Pt",3,0.0,Cubic,225,Fm-3m,0.0,True,True,0.5460483037241302,Li: 0.2500; Mn: 0.2500; Pt: 0.5000
mp-861912,TaTiTc2,"Ta, Tc, Ti",3,0.0,Cubic,225,Fm-3m,0.0,True,True,0.19052558883257645,Ta: 0.2500; Ti: 0.2500; Tc: 0.5000
mp-1187694,V2OsW,"Os, V, W",3,0.0,Cubic,225,Fm-3m,0.0,True,True,0.32988634406413375,V: 0.5000; Os: 0.2500; W: 0.2500
mp-1187428,Ti2FeRu,"Fe, Ru, Ti",3,0.016949789999999965,Cubic,225,Fm-3m,0.0,True,True,0.27114341223787836,Ti: 0.5000; Fe: 0.2500; Ru: 0.2500
mp-1185850,MgCdPd2,"Cd, Mg, Pd",3,0.001065562500000894,Cubic,225,Fm-3m,0.0,True,True,0.37489998666311003,Mg: 0.2500; Cd: 0.2500; Pd: 0.5000
mp-11236,MgZnAg2,"Ag, Mg, Zn",3,0.0,Cubic,225,Fm-3m,0.0,False,True,0.25509802037648194,Mg: 0.2500; Zn: 0.2500; Ag: 0.5000
mp-1188052,ZrGaCo2,"Co, Ga, Zr",3,0.0,Cubic,225,Fm-3m,0.0,True,True,0.22983689869122403,Zr: 0.2500; Ga: 0.2500; Co: 0.5000
mp-1187092,Sr2MgTl,"Mg, Sr, Tl",3,0.0,Cubic,225,Fm-3m,0.0,True,True,0.2798548731039001,Sr: 0.5000; Mg: 0.2500; Tl: 0.2500
mp-865649,Ti2TcRh,"Rh, Tc, Ti",3,0.0,Cubic,225,Fm-3m,0.0,True,True,0.3060637188560577,Ti: 0.5000; Tc: 0.2500; Rh: 0.2500
mp-972205,V2MoOs,"Mo, Os, V",3,0.0,Cubic,225,Fm-3m,0.0,True,True,0.27536339626028744,V: 0.5000; Mo: 0.2500; Os: 0.2500
mp-867928,ScGaRh2,"Ga, Rh, Sc",3,0.0,Cubic,225,Fm-3m,0.0,True,True,0.38218941638930803,Sc: 0.2500; Ga: 0.2500; Rh: 0.5000
mp-867812,LiAlNi2,"Al, Li, Ni",3,0.01952963520833606,Cubic,225,Fm-3m,0.0,True,True,0.37969560176541417,Li: 0.2500; Al: 0.2500; Ni: 0.5000
mp-979259,V2ReMo,"Mo, Re, V",3,0.0,Cubic,225,Fm-3m,0.0,True,True,0.22011360703055147,V: 0.5000; Re: 0.2500; Mo: 0.2500
mp-1232423,Zr2CuTc,"Cu, Tc, Zr",3,0.0,Cubic,225,Fm-3m,0.0,True,True,0.2849999999999999,Zr: 0.5000; Cu: 0.2500; Tc: 0.2500
mp-866221,HfSnRh2,"Hf, Rh, Sn",3,0.0,Cubic,225,Fm-3m,0.0,True,True,0.40009373901624595,Hf: 0.2500; Sn: 0.2500; Rh: 0.5000
mp-866001,AlVRu2,"Al, Ru, V",3,0.0,Cubic,225,Fm-3m,0.0,True,True,0.2900861940872058,Al: 0.2500; V: 0.2500; Ru: 0.5000
mp-1186233,NbSnRu2,"Nb, Ru, Sn",3,0.0,Cubic,225,Fm-3m,0.0,True,True,0.24556058315617355,Nb: 0.2500; Sn: 0.2500; Ru: 0.5000
mp-865494,V2CrRu,"Cr, Ru, V",3,0.011705994999999803,Cubic,225,Fm-3m,0.0,True,True,0.24279621084357983,V: 0.5000; Cr: 0.2500; Ru: 0.2500
mp-864831,NbZnRh2,"Nb, Rh, Zn",3,0.0,Cubic,225,Fm-3m,0.0,True,True,0.3279767522249099,Nb: 0.2500; Zn: 0.2500; Rh: 0.5000
mp-865484,V2CrRe,"Cr, Re, V",3,0.004517771250000635,Cubic,225,Fm-3m,0.0,True,True,0.11324751652906125,V: 0.5000; Cr: 0.2500; Re: 0.2500
mp-1186945,Sc2CuNi,"Cu, Ni, Sc",3,0.003620189999999468,Cubic,225,Fm-3m,0.0,True,True,0.2725229348146683,Sc: 0.5000; Cu: 0.2500; Ni: 0.2500
mp-862331,La2CuRu,"Cu, La, Ru",3,0.0516998808928566,Cubic,225,Fm-3m,0.0,True,True,0.4866980583482946,La: 0.5000; Cu: 0.2500; Ru: 0.2500
mp-867201,CaInHg2,"Ca, Hg, In",3,0.0046816884375004975,Cubic,225,Fm-3m,0.0,True,True,0.41118730525151187,Ca: 0.2500; In: 0.2500; Hg: 0.5000
mp-3944,ZrAlNi2,"Al, Ni, Zr",3,0.0,Cubic,225,Fm-3m,0.0,False,True,0.2412467616362963,Zr: 0.2500; Al: 0.2500; Ni: 0.5000