material_id,formula,elements,num_elements,energy_above_hull,crystal_system,spacegroup_number,spacegroup_symbol,band_gap,theoretical,is_metal,electronegativity_difference,atomic_concentrations
mp-865948,Ti2ReRh,"Re, Rh, Ti",3,0.0,Cubic,225,Fm-3m,0.0,True,True,0.3060637188560577,Ti: 0.5000; Re: 0.2500; Rh: 0.2500
mp-865666,Li2TlAg,"Ag, Li, Tl",3,0.008540689999996687,Cubic,225,Fm-3m,0.0,True,True,0.41233329964968873,Li: 0.5000; Tl: 0.2500; Ag: 0.2500
mp-864961,Be2PdPt,"Be, Pd, Pt",3,0.0,Cubic,225,Fm-3m,0.0,True,True,0.33619190948028477,Be: 0.5000; Pd: 0.2500; Pt: 0.2500
mp-541047,ZrAlPd2,"Al, Pd, Zr",3,0.0,Cubic,225,Fm-3m,0.0,False,True,0.3781864619470137,Zr: 0.2500; Al: 0.2500; Pd: 0.5000
mp-861672,Ti2FeIr,"Fe, Ir, Ti",3,0.0,Cubic,225,Fm-3m,0.0,True,True,0.27114341223787836,Ti: 0.5000; Fe: 0.2500; Ir: 0.2500
mp-865863,Li2TlPd,"Li, Pd, Tl",3,0.0,Cubic,225,Fm-3m,0.0,True,True,0.5082076347321044,Li: 0.5000; Tl: 0.2500; Pd: 0.2500
mp-862424,Sc2TcNi,"Ni, Sc, Tc",3,0.046318452812501576,Cubic,225,Fm-3m,0.0,True,True,0.2725229348146683,Sc: 0.5000; Tc: 0.2500; Ni: 0.2500
mp-867916,ScGaIr2,"Ga, Ir, Sc",3,0.0,Cubic,225,Fm-3m,0.0,True,True,0.3462206666275138,Sc: 0.2500; Ga: 0.2500; Ir: 0.5000
mp-1186962,Sc2ZnPd,"Pd, Sc, Zn",3,0.010097137500000741,Cubic,225,Fm-3m,0.0,True,True,0.3429559009552103,Sc: 0.5000; Zn: 0.2500; Pd: 0.2500
mp-865665,TiReTc2,"Re, Tc, Ti",3,0.0,Cubic,225,Fm-3m,0.0,True,True,0.1558845726811989,Ti: 0.2500; Re: 0.2500; Tc: 0.5000
mp-984704,CaAgHg2,"Ag, Ca, Hg",3,0.04134302374999521,Cubic,225,Fm-3m,0.0,True,True,0.4238735070749291,Ca: 0.2500; Ag: 0.2500; Hg: 0.5000
mp-862695,Al2CoRu,"Al, Co, Ru",3,0.0,Cubic,225,Fm-3m,0.0,True,True,0.24295061226512685,Al: 0.5000; Co: 0.2500; Ru: 0.2500
mp-1187098,Sr2ZnPb,"Pb, Sr, Zn",3,0.020680136999999377,Cubic,225,Fm-3m,0.05420000000000025,True,False,0.5728874234961002,Sr: 0.5000; Zn: 0.2500; Pb: 0.2500
mp-984769,CaTl2Cd,"Ca, Cd, Tl",3,0.0253574977083324,Cubic,225,Fm-3m,0.0,True,True,0.28003348014121454,Ca: 0.2500; Tl: 0.5000; Cd: 0.2500
mp-866171,YMgAu2,"Au, Mg, Y",3,0.0,Cubic,225,Fm-3m,0.0,True,True,0.6382936236560726,Y: 0.2500; Mg: 0.2500; Au: 0.5000
mp-862365,Sc2OsPd,"Os, Pd, Sc",3,0.0,Cubic,225,Fm-3m,0.0,True,True,0.42000000000000004,Sc: 0.5000; Os: 0.2500; Pd: 0.2500
mp-1206369,ScPd2Pb,"Pb, Pd, Sc",3,0.0,Cubic,225,Fm-3m,0.0,True,True,0.38615896985568005,Sc: 0.2500; Pd: 0.5000; Pb: 0.2500
mp-977543,ZrInRh2,"In, Rh, Zr",3,0.0,Cubic,225,Fm-3m,0.0,True,True,0.3958771905528278,Zr: 0.2500; In: 0.2500; Rh: 0.5000
mp-864895,Be2NiRh,"Be, Ni, Rh",3,0.0,Cubic,225,Fm-3m,0.0,True,True,0.29328953271468783,Be: 0.5000; Ni: 0.2500; Rh: 0.2500
mp-976289,NaCd2Au,"Au, Cd, Na",3,0.0265642993750006,Cubic,225,Fm-3m,0.0,True,True,0.5696654720096699,Na: 0.2500; Cd: 0.5000; Au: 0.2500
mp-862362,Sc2TcPt,"Pt, Sc, Tc",3,0.03841721781250129,Cubic,225,Fm-3m,0.0,True,True,0.38894086954188795,Sc: 0.5000; Tc: 0.2500; Pt: 0.2500
mp-862555,LiY2Al,"Al, Li, Y",3,0.0,Cubic,225,Fm-3m,0.0,True,True,0.225873305195634,Li: 0.2500; Y: 0.5000; Al: 0.2500
mp-567981,CrGaCo2,"Co, Cr, Ga",3,0.02157659625000008,Cubic,225,Fm-3m,0.0,False,True,0.0898262211161084,Cr: 0.2500; Ga: 0.2500; Co: 0.5000
mp-865746,GaTc2W,"Ga, Tc, W",3,0.0,Cubic,225,Fm-3m,0.0,True,True,0.21533404282648852,Ga: 0.2500; Tc: 0.5000; W: 0.2500
mp-1187770,Y2TlIn,"In, Tl, Y",3,0.003717282500002028,Cubic,225,Fm-3m,0.0,True,True,0.2465765601187591,Y: 0.5000; Tl: 0.2500; In: 0.2500
mp-865871,Li2ZnAu,"Au, Li, Zn",3,0.009050744999999694,Cubic,225,Fm-3m,0.0,True,True,0.6401708756261878,Li: 0.5000; Zn: 0.2500; Au: 0.2500
mp-1187977,Zr2FeOs,"Fe, Os, Zr",3,0.008808510446431939,Cubic,225,Fm-3m,0.0,True,True,0.36663162711364666,Zr: 0.5000; Fe: 0.2500; Os: 0.2500
mp-30395,ScInAu2,"Au, In, Sc",3,0.00988613650000758,Cubic,225,Fm-3m,0.0,False,True,0.5072228307164416,Sc: 0.2500; In: 0.2500; Au: 0.5000
mp-865032,Mn2PtRh,"Mn, Pt, Rh",3,0.0,Cubic,225,Fm-3m,0.0,True,True,0.3649999999999999,Mn: 0.5000; Pt: 0.2500; Rh: 0.2500
mp-867169,Sr2SnHg,"Hg, Sn, Sr",3,0.0,Cubic,225,Fm-3m,0.27170000000000005,True,False,0.5151941381654105,Sr: 0.5000; Sn: 0.2500; Hg: 0.2500
mp-1183531,Ca2TlIn,"Ca, In, Tl",3,0.0,Cubic,225,Fm-3m,0.0,True,True,0.3545419580247168,Ca: 0.5000; Tl: 0.2500; In: 0.2500
mp-977572,Hf2MnRh,"Hf, Mn, Rh",3,0.0,Cubic,225,Fm-3m,0.0,True,True,0.40145827927693795,Hf: 0.5000; Mn: 0.2500; Rh: 0.2500
mp-1193385,Sc6Ga16Os7,"Ga, Os, Sc",3,0.024875790389805807,Cubic,225,Fm-3m,0.0,False,True,0.2803734557211298,Sc: 0.2069; Ga: 0.5517; Os: 0.2414
mp-1187124,Sr2TlPb,"Pb, Sr, Tl",3,0.017313429999994412,Cubic,225,Fm-3m,0.0,True,True,0.5706739436841322,Sr: 0.5000; Tl: 0.2500; Pb: 0.2500
mp-867756,Sc2CuAu,"Au, Cu, Sc",3,0.0006946874999984587,Cubic,225,Fm-3m,0.0,True,True,0.48590122453025364,Sc: 0.5000; Cu: 0.2500; Au: 0.2500
mp-976598,LiHf2Ir,"Hf, Ir, Li",3,0.014170271944447421,Cubic,225,Fm-3m,0.0,True,True,0.4550549417378083,Li: 0.2500; Hf: 0.5000; Ir: 0.2500
mp-865928,Ti2TcPt,"Pt, Tc, Ti",3,0.0,Cubic,225,Fm-3m,0.0,True,True,0.3060637188560577,Ti: 0.5000; Tc: 0.2500; Pt: 0.2500
mp-1187443,Ti2GaRe,"Ga, Re, Ti",3,0.01244001499999925,Cubic,225,Fm-3m,0.0,True,True,0.1606821396422141,Ti: 0.5000; Ga: 0.2500; Re: 0.2500
mp-1185136,LaYMg2,"La, Mg, Y",3,0.012403721250000999,Cubic,225,Fm-3m,0.0,True,True,0.08616843969807042,La: 0.2500; Y: 0.2500; Mg: 0.5000
mp-865520,YCdPd2,"Cd, Pd, Y",3,0.0,Cubic,225,Fm-3m,0.0,True,True,0.4078832553562356,Y: 0.2500; Cd: 0.2500; Pd: 0.5000
mp-867924,LiCdPd2,"Cd, Li, Pd",3,0.0,Cubic,225,Fm-3m,0.0,True,True,0.5000687452740874,Li: 0.2500; Cd: 0.2500; Pd: 0.5000
mp-1187211,Ta2RuW,"Ru, Ta, W",3,0.0,Cubic,225,Fm-3m,0.0,True,True,0.3940812099047606,Ta: 0.5000; Ru: 0.2500; W: 0.2500
mp-1193200,Zr6Al7Cu16,"Al, Cu, Zr",3,0.0,Cubic,225,Fm-3m,0.0,False,True,0.22847891791894623,Zr: 0.2069; Al: 0.2414; Cu: 0.5517
mp-862370,Sc2PdRu,"Pd, Ru, Sc",3,0.0,Cubic,225,Fm-3m,0.0,True,True,0.42000000000000004,Sc: 0.5000; Pd: 0.2500; Ru: 0.2500
mp-977410,NbGaFe2,"Fe, Ga, Nb",3,0.0,Cubic,225,Fm-3m,0.09050000000000047,True,False,0.09705024471890836,Nb: 0.2500; Ga: 0.2500; Fe: 0.5000
mp-865011,Mn2NbAl,"Al, Mn, Nb",3,0.0,Cubic,225,Fm-3m,0.0,True,True,0.02772634126602357,Mn: 0.5000; Nb: 0.2500; Al: 0.2500
mp-862700,AlVOs2,"Al, Os, V",3,0.0,Cubic,225,Fm-3m,0.0,True,True,0.2900861940872058,Al: 0.2500; V: 0.2500; Os: 0.5000
mp-1187240,Sr2InHg,"Hg, In, Sr",3,0.0,Cubic,225,Fm-3m,0.0,True,True,0.47639269515810173,Sr: 0.5000; In: 0.2500; Hg: 0.2500
mp-864835,Hf2CoIr,"Co, Hf, Ir",3,0.06937529874999804,Cubic,225,Fm-3m,0.0,True,True,0.3869108424430621,Hf: 0.5000; Co: 0.2500; Ir: 0.2500
mp-1187111,Sr2ZnGa,"Ga, Sr, Zn",3,0.024140984732145654,Cubic,225,Fm-3m,0.0,True,True,0.39408120990476064,Sr: 0.5000; Zn: 0.2500; Ga: 0.2500
mp-862737,LiHgPd2,"Hg, Li, Pd",3,0.0,Cubic,225,Fm-3m,0.0,True,True,0.5060385360819866,Li: 0.2500; Hg: 0.2500; Pd: 0.5000
mp-1187713,VGaOs2,"Ga, Os, V",3,0.0,Cubic,225,Fm-3m,0.0,True,True,0.24829418035870285,V: 0.2500; Ga: 0.2500; Os: 0.5000
mp-980649,TiNbRu2,"Nb, Ru, Ti",3,0.013695349999998996,Cubic,225,Fm-3m,0.0,True,True,0.3157134776977379,Ti: 0.2500; Nb: 0.2500; Ru: 0.5000
mp-1185926,Mn2PdPt,"Mn, Pd, Pt",3,0.0,Cubic,225,Fm-3m,0.0,True,True,0.3461574786134195,Mn: 0.5000; Pd: 0.2500; Pt: 0.2500
mp-1183459,Ca2ZnCd,"Ca, Cd, Zn",3,0.012627786250000383,Cubic,225,Fm-3m,0.0,True,True,0.3352983745859797,Ca: 0.5000; Zn: 0.2500; Cd: 0.2500
mp-864890,Hf2FeIr,"Fe, Hf, Ir",3,0.0,Cubic,225,Fm-3m,0.0,True,True,0.3806819538670044,Hf: 0.5000; Fe: 0.2500; Ir: 0.2500
mp-1187836,YCdRh2,"Cd, Rh, Y",3,0.017756516249998633,Cubic,225,Fm-3m,0.0,True,True,0.4447119854467607,Y: 0.2500; Cd: 0.2500; Rh: 0.5000
mp-1183551,CaYPd2,"Ca, Pd, Y",3,0.02162615902777887,Cubic,225,Fm-3m,0.0,True,True,0.5505224791050771,Ca: 0.2500; Y: 0.2500; Pd: 0.5000
mp-862485,GaCuRh2,"Cu, Ga, Rh",3,0.0,Cubic,225,Fm-3m,0.0,True,True,0.21486914622625547,Ga: 0.2500; Cu: 0.2500; Rh: 0.5000
mp-865924,LiZrAu2,"Au, Li, Zr",3,0.0,Cubic,225,Fm-3m,0.0,True,True,0.7034690824762664,Li: 0.2500; Zr: 0.2500; Au: 0.5000
mp-1185615,MgZnNi2,"Mg, Ni, Zn",3,0.01906944538194466,Cubic,225,Fm-3m,0.0,True,True,0.24632295873507198,Mg: 0.2500; Zn: 0.2500; Ni: 0.5000
mp-864944,MnBe2Pt,"Be, Mn, Pt",3,0.0,Cubic,225,Fm-3m,0.0,True,True,0.31043316510965757,Mn: 0.2500; Be: 0.5000; Pt: 0.2500
mp-864976,Mg2AgIr,"Ag, Ir, Mg",3,0.011970491644738068,Cubic,225,Fm-3m,0.0,True,True,0.38938252400435236,Mg: 0.5000; Ag: 0.2500; Ir: 0.2500
mp-1185194,La2TlIn,"In, La, Tl",3,0.003410504999997954,Cubic,225,Fm-3m,0.0,True,True,0.30528675044947495,La: 0.5000; Tl: 0.2500; In: 0.2500
mp-972966,Sc2OsAu,"Au, Os, Sc",3,0.0031471114236119035,Cubic,225,Fm-3m,0.0,True,True,0.5191098149717457,Sc: 0.5000; Os: 0.2500; Au: 0.2500
mp-862702,Sc2AgHg,"Ag, Hg, Sc",3,0.0,Cubic,225,Fm-3m,0.0,True,True,0.3035107082130711,Sc: 0.5000; Ag: 0.2500; Hg: 0.2500
mp-1184318,Ga2RuPt,"Ga, Pt, Ru",3,0.029191243750001483,Cubic,225,Fm-3m,0.0,True,True,0.21685248442201435,Ga: 0.5000; Ru: 0.2500; Pt: 0.2500
mp-977555,MgNbRh2,"Mg, Nb, Rh",3,0.0,Cubic,225,Fm-3m,0.0,True,True,0.42505146747188144,Mg: 0.2500; Nb: 0.2500; Rh: 0.5000
mp-1193834,Ti6Ga16Rh7,"Ga, Rh, Ti",3,0.043440030803289176,Cubic,225,Fm-3m,0.0,False,True,0.25512208264109476,Ti: 0.2069; Ga: 0.5517; Rh: 0.2414
mp-981365,V2ReRu,"Re, Ru, V",3,0.0,Cubic,225,Fm-3m,0.0,True,True,0.23526580712037196,V: 0.5000; Re: 0.2500; Ru: 0.2500
mp-1187200,Ta2TcRu,"Ru, Ta, Tc",3,0.0,Cubic,225,Fm-3m,0.0,True,True,0.29474565306378997,Ta: 0.5000; Tc: 0.2500; Ru: 0.2500
mp-867801,La2AgSn,"Ag, La, Sn",3,0.02941770893749851,Cubic,225,Fm-3m,0.0,True,True,0.42263311512469054,La: 0.5000; Ag: 0.2500; Sn: 0.2500
mp-867837,BeCrRu2,"Be, Cr, Ru",3,0.0,Cubic,225,Fm-3m,0.0,True,True,0.2942256786889956,Be: 0.2500; Cr: 0.2500; Ru: 0.5000
mp-865140,MnGaRu2,"Ga, Mn, Ru",3,0.0,Cubic,225,Fm-3m,0.0,True,True,0.2757716446627536,Mn: 0.2500; Ga: 0.2500; Ru: 0.5000
mp-1183541,Cd2RhAu,"Au, Cd, Rh",3,0.0,Cubic,225,Fm-3m,0.0,True,True,0.37155080406318597,Cd: 0.5000; Rh: 0.2500; Au: 0.2500
mp-867910,LaAgAu2,"Ag, Au, La",3,0.012605053333325067,Cubic,225,Fm-3m,0.0,True,True,0.5905664653533927,La: 0.2500; Ag: 0.2500; Au: 0.5000
mp-1186141,NaMgHg2,"Hg, Mg, Na",3,0.012860590374998537,Cubic,225,Fm-3m,0.0,True,True,0.46005434461593775,Na: 0.2500; Mg: 0.2500; Hg: 0.5000
mp-867775,Al2NiRu,"Al, Ni, Ru",3,0.0,Cubic,225,Fm-3m,0.0,True,True,0.24498724456591614,Al: 0.5000; Ni: 0.2500; Ru: 0.2500
mp-864684,Hf2MoIr,"Hf, Ir, Mo",3,0.0,Cubic,225,Fm-3m,0.0,True,True,0.4402272140611028,Hf: 0.5000; Mo: 0.2500; Ir: 0.2500
mp-22725,TiInCu2,"Cu, In, Ti",3,0.0,Cubic,225,Fm-3m,0.0,False,True,0.14696938456699063,Ti: 0.2500; In: 0.2500; Cu: 0.5000
mp-977380,LiMg2Pd,"Li, Mg, Pd",3,0.0,Cubic,225,Fm-3m,0.0,True,True,0.4534864937349293,Li: 0.2500; Mg: 0.5000; Pd: 0.2500
mp-975897,Hf2RuRh,"Hf, Rh, Ru",3,0.014159457499999917,Cubic,225,Fm-3m,0.0,True,True,0.4708502946797421,Hf: 0.5000; Ru: 0.2500; Rh: 0.2500
mp-865587,Y2CuRh,"Cu, Rh, Y",3,0.010462957946428375,Cubic,225,Fm-3m,0.0,True,True,0.4552746423863292,Y: 0.5000; Cu: 0.2500; Rh: 0.2500
mp-867147,BaNaHg2,"Ba, Hg, Na",3,0.0,Cubic,225,Fm-3m,0.0,True,True,0.5451834553615874,Ba: 0.2500; Na: 0.2500; Hg: 0.5000
mp-976406,MgMnPt2,"Mg, Mn, Pt",3,0.0,Cubic,225,Fm-3m,0.0,True,True,0.4333878170876518,Mg: 0.2500; Mn: 0.2500; Pt: 0.5000
mp-973979,LiFePd2,"Fe, Li, Pd",3,0.012542315833334428,Cubic,225,Fm-3m,0.0,True,True,0.49831591385385243,Li: 0.2500; Fe: 0.2500; Pd: 0.5000
mp-865512,YMgCd2,"Cd, Mg, Y",3,0.0,Cubic,225,Fm-3m,0.0,True,True,0.21486914622625555,Y: 0.2500; Mg: 0.2500; Cd: 0.5000
mp-864671,HfAlRh2,"Al, Hf, Rh",3,0.0,Cubic,225,Fm-3m,0.0,True,True,0.4268123123809808,Hf: 0.2500; Al: 0.2500; Rh: 0.5000
mp-867330,Al2FeNi,"Al, Fe, Ni",3,0.02440800500000062,Cubic,225,Fm-3m,0.0,True,True,0.13304134695650063,Al: 0.5000; Fe: 0.2500; Ni: 0.2500
mp-977453,Ca2CdIn,"Ca, Cd, In",3,0.0,Cubic,225,Fm-3m,0.0,True,True,0.3688749788207381,Ca: 0.5000; Cd: 0.2500; In: 0.2500
mp-1018074,GaFeNi2,"Fe, Ga, Ni",3,0.05217974916666801,Cubic,225,Fm-3m,0.0,True,True,0.045552167895721425,Ga: 0.2500; Fe: 0.2500; Ni: 0.5000
mp-1188009,ZrCdAg2,"Ag, Cd, Zr",3,0.0,Cubic,225,Fm-3m,0.0,True,True,0.24556058315617346,Zr: 0.2500; Cd: 0.2500; Ag: 0.5000
mp-1193847,Hf6Al16Co7,"Al, Co, Hf",3,0.0,Cubic,225,Fm-3m,0.0,False,True,0.1935929755705245,Hf: 0.2069; Al: 0.5517; Co: 0.2414
mp-864992,MnNbRu2,"Mn, Nb, Ru",3,0.0,Cubic,225,Fm-3m,0.0,True,True,0.3129996006387229,Mn: 0.2500; Nb: 0.2500; Ru: 0.5000
mp-1185617,MgZn2Pt,"Mg, Pt, Zn",3,0.01677200571428461,Cubic,225,Fm-3m,0.0,True,True,0.3505263898767109,Mg: 0.2500; Zn: 0.5000; Pt: 0.2500
mp-1192828,Ca3(Cd2Pt)4,"Ca, Cd, Pt",3,0.0,Cubic,225,Fm-3m,0.0,False,True,0.48499713630311486,Ca: 0.5000; Cd: 0.3333; Pt: 0.1667
mp-1183166,AgBiPd2,"Ag, Bi, Pd",3,0.008421775000003962,Cubic,225,Fm-3m,0.0,True,True,0.11691342951089932,Ag: 0.2500; Bi: 0.2500; Pd: 0.5000
mp-1184580,HfZnRh2,"Hf, Rh, Zn",3,0.0,Cubic,225,Fm-3m,0.0,True,True,0.42109232954305864,Hf: 0.2500; Zn: 0.2500; Rh: 0.5000
mp-865876,Ti2TcOs,"Os, Tc, Ti",3,0.0,Cubic,225,Fm-3m,0.0,True,True,0.27617928959282956,Ti: 0.5000; Tc: 0.2500; Os: 0.2500
mp-867854,Ca2ZnRh,"Ca, Rh, Zn",3,0.02117505034722278,Cubic,225,Fm-3m,0.0,True,True,0.5314308515696091,Ca: 0.5000; Zn: 0.2500; Rh: 0.2500
mp-973170,ScCdAu2,"Au, Cd, Sc",3,0.018009839999997723,Cubic,225,Fm-3m,0.0,True,True,0.5207386580617959,Sc: 0.2500; Cd: 0.2500; Au: 0.5000
mp-865076,NaCd2Pt,"Cd, Na, Pt",3,0.0,Cubic,225,Fm-3m,0.0,True,True,0.4791855068759905,Na: 0.2500; Cd: 0.5000; Pt: 0.2500
mp-861507,ScAlIr2,"Al, Ir, Sc",3,0.0,Cubic,225,Fm-3m,0.0,True,True,0.3682645109157276,Sc: 0.2500; Al: 0.2500; Ir: 0.5000
mp-1184978,Li2InHg,"Hg, In, Li",3,0.00892313749999829,Cubic,225,Fm-3m,0.0,True,True,0.46160047660287357,Li: 0.5000; In: 0.2500; Hg: 0.2500
mp-865523,TiMnRh2,"Mn, Rh, Ti",3,0.0,Cubic,225,Fm-3m,0.0,True,True,0.36751700640922713,Ti: 0.2500; Mn: 0.2500; Rh: 0.5000
mp-1186232,NbTc2Sn,"Nb, Sn, Tc",3,0.0,Cubic,225,Fm-3m,0.0,True,True,0.1407124727947028,Nb: 0.2500; Tc: 0.5000; Sn: 0.2500
mp-865490,V2CrFe,"Cr, Fe, V",3,0.0,Cubic,225,Fm-3m,0.0,True,True,0.0831790237980707,V: 0.5000; Cr: 0.2500; Fe: 0.2500
mp-866041,Ga2IrRu,"Ga, Ir, Ru",3,0.0,Cubic,225,Fm-3m,0.0,True,True,0.1950000000000001,Ga: 0.5000; Ir: 0.2500; Ru: 0.2500
mp-1185207,LiCdHg2,"Cd, Hg, Li",3,0.0,Cubic,225,Fm-3m,0.0,True,True,0.4166158302321216,Li: 0.2500; Cd: 0.2500; Hg: 0.5000
mp-5748,HfAlNi2,"Al, Hf, Ni",3,0.0,Cubic,225,Fm-3m,0.0,False,True,0.2525247512621287,Hf: 0.2500; Al: 0.2500; Ni: 0.5000
mp-1187939,ZnSnRh2,"Rh, Sn, Zn",3,0.0,Cubic,225,Fm-3m,0.0,True,True,0.26156978036462847,Zn: 0.2500; Sn: 0.2500; Rh: 0.5000
mp-865145,NaTl2Bi,"Bi, Na, Tl",3,0.0,Cubic,225,Fm-3m,0.2027000000000001,True,False,0.3921335869318006,Na: 0.2500; Tl: 0.5000; Bi: 0.2500
mp-1193089,Hf6Ga16Rh7,"Ga, Hf, Rh",3,0.02512199910812818,Cubic,225,Fm-3m,0.0,False,True,0.32721794182265423,Hf: 0.2069; Ga: 0.5517; Rh: 0.2414
mp-31208,LiIn2Ir,"In, Ir, Li",3,0.0,Cubic,225,Fm-3m,0.0,False,True,0.4416729559300638,Li: 0.2500; In: 0.5000; Ir: 0.2500
mp-865229,Be2NiIr,"Be, Ir, Ni",3,0.0,Cubic,225,Fm-3m,0.0,True,True,0.2632845418933668,Be: 0.5000; Ni: 0.2500; Ir: 0.2500
mp-981933,NaPd2Pb,"Na, Pb, Pd",3,0.019231696590907177,Cubic,225,Fm-3m,0.0,True,True,0.571161098115059,Na: 0.2500; Pd: 0.5000; Pb: 0.2500
mp-1184612,Hf2TcNi,"Hf, Ni, Tc",3,0.011364907499995525,Cubic,225,Fm-3m,0.0,True,True,0.3025206604514805,Hf: 0.5000; Tc: 0.2500; Ni: 0.2500
mp-1185619,MgZn2Rh,"Mg, Rh, Zn",3,0.0034903027499995076,Cubic,225,Fm-3m,0.0,True,True,0.3505263898767109,Mg: 0.2500; Zn: 0.5000; Rh: 0.2500
mp-1187434,Ti2FeTc,"Fe, Tc, Ti",3,0.008989007500000312,Cubic,225,Fm-3m,0.0,True,True,0.16437381178277757,Ti: 0.5000; Fe: 0.2500; Tc: 0.2500
mp-862684,LiHf2Os,"Hf, Li, Os",3,0.0,Cubic,225,Fm-3m,0.0,True,True,0.4550549417378083,Li: 0.2500; Hf: 0.5000; Os: 0.2500
mp-864614,LiMg2Pt,"Li, Mg, Pt",3,0.0,Cubic,225,Fm-3m,0.0,True,True,0.4866723743957529,Li: 0.2500; Mg: 0.5000; Pt: 0.2500
mp-1187527,TlAgPd2,"Ag, Pd, Tl",3,0.007857433869041586,Cubic,225,Fm-3m,0.0,True,True,0.2390998745294527,Tl: 0.2500; Ag: 0.2500; Pd: 0.5000
mp-862291,BeGaRh2,"Be, Ga, Rh",3,0.0,Cubic,225,Fm-3m,0.0,True,True,0.30696090956341643,Be: 0.2500; Ga: 0.2500; Rh: 0.5000
mp-10894,MnAlRh2,"Al, Mn, Rh",3,0.0,Cubic,225,Fm-3m,0.0,False,True,0.35064226784573466,Mn: 0.2500; Al: 0.2500; Rh: 0.5000
mp-865039,HfTc2Sn,"Hf, Sn, Tc",3,0.03665602687499714,Cubic,225,Fm-3m,0.0,True,True,0.2695830113341714,Hf: 0.2500; Tc: 0.5000; Sn: 0.2500
mp-865497,V2ReOs,"Os, Re, V",3,0.0,Cubic,225,Fm-3m,0.0,True,True,0.23526580712037196,V: 0.5000; Re: 0.2500; Os: 0.2500
mp-1185602,La2GaAg,"Ag, Ga, La",3,0.007104717500000746,Cubic,225,Fm-3m,0.0,True,True,0.3873306081372862,La: 0.5000; Ga: 0.2500; Ag: 0.2500
mp-977540,CaBiPd2,"Bi, Ca, Pd",3,0.011599524062497757,Cubic,225,Fm-3m,0.0,True,True,0.4990741427884238,Ca: 0.2500; Bi: 0.2500; Pd: 0.5000
mp-861666,LiRu2W,"Li, Ru, W",3,0.0,Cubic,225,Fm-3m,0.0,True,True,0.5552251795442998,Li: 0.2500; Ru: 0.5000; W: 0.2500
mp-862662,LaMgZn2,"La, Mg, Zn",3,0.0,Cubic,225,Fm-3m,0.0,True,True,0.234560759719097,La: 0.2500; Mg: 0.2500; Zn: 0.5000
mp-1183219,Ba2MgTl,"Ba, Mg, Tl",3,0.0,Cubic,225,Fm-3m,0.0,True,True,0.3076828724514903,Ba: 0.5000; Mg: 0.2500; Tl: 0.2500
mp-1100780,ZrZnPd2,"Pd, Zn, Zr",3,0.0,Cubic,225,Fm-3m,0.0,True,True,0.37259227045122667,Zr: 0.2500; Zn: 0.2500; Pd: 0.5000
mp-1187771,Y2CuPt,"Cu, Pt, Y",3,0.018063457812502293,Cubic,225,Fm-3m,0.0,True,True,0.4552746423863292,Y: 0.5000; Cu: 0.2500; Pt: 0.2500
mp-867905,LiLa2Ru,"La, Li, Ru",3,0.07811138452380995,Cubic,225,Fm-3m,0.0,True,True,0.49605947224098046,Li: 0.2500; La: 0.5000; Ru: 0.2500
mp-862746,Sr2LiTl,"Li, Sr, Tl",3,0.0,Cubic,225,Fm-3m,0.0,True,True,0.28605069480775613,Sr: 0.5000; Li: 0.2500; Tl: 0.2500
mp-867979,LaInHg2,"Hg, In, La",3,0.0,Cubic,225,Fm-3m,0.0,True,True,0.36905284174491865,La: 0.2500; In: 0.2500; Hg: 0.5000
mp-867761,Sc2CoRu,"Co, Ru, Sc",3,0.0,Cubic,225,Fm-3m,0.0,True,True,0.35832945734337834,Sc: 0.5000; Co: 0.2500; Ru: 0.2500
mp-865728,Ti2ReNi,"Ni, Re, Ti",3,0.0,Cubic,225,Fm-3m,0.0,True,True,0.18253424336271806,Ti: 0.5000; Re: 0.2500; Ni: 0.2500
mp-867849,Ca2TlCd,"Ca, Cd, Tl",3,0.0,Cubic,225,Fm-3m,0.0,True,True,0.32843378328058764,Ca: 0.5000; Tl: 0.2500; Cd: 0.2500
mp-1186102,NaAg2Sn,"Ag, Na, Sn",3,0.04339133281250085,Cubic,225,Fm-3m,0.0,True,True,0.43751428548105714,Na: 0.2500; Ag: 0.5000; Sn: 0.2500
mp-1194470,Hf6Al16Pt7,"Al, Hf, Pt",3,0.0,Cubic,225,Fm-3m,0.0,False,True,0.34455023328685486,Hf: 0.2069; Al: 0.5517; Pt: 0.2414
mp-867258,LiZnPd2,"Li, Pd, Zn",3,0.0,Cubic,225,Fm-3m,0.0,True,True,0.5019150824591746,Li: 0.2500; Zn: 0.2500; Pd: 0.5000
mp-30592,CuNi2Sn,"Cu, Ni, Sn",3,0.03483389854166674,Cubic,225,Fm-3m,0.0,False,True,0.02345207879911717,Cu: 0.2500; Ni: 0.5000; Sn: 0.2500
mp-978976,Ti6Al16Pt7,"Al, Pt, Ti",3,0.0,Cubic,225,Fm-3m,0.0,False,True,0.2961231867585321,Ti: 0.2069; Al: 0.5517; Pt: 0.2414
mp-1184607,HfZrOs2,"Hf, Os, Zr",3,0.0,Cubic,225,Fm-3m,0.0,True,True,0.4426271003903851,Hf: 0.2500; Zr: 0.2500; Os: 0.5000
mp-1184982,Li2BiAu,"Au, Bi, Li",3,0.026453099999999896,Cubic,225,Fm-3m,0.0,True,True,0.6754998149518622,Li: 0.5000; Bi: 0.2500; Au: 0.2500
mp-983850,Ca2AgAu,"Ag, Au, Ca",3,0.025546808750000594,Cubic,225,Fm-3m,0.0,True,True,0.6540785503286284,Ca: 0.5000; Ag: 0.2500; Au: 0.2500
mp-1185963,MgSc2Ir,"Ir, Mg, Sc",3,0.04023799607142564,Cubic,225,Fm-3m,0.0,True,True,0.3715087482146282,Mg: 0.2500; Sc: 0.5000; Ir: 0.2500
mp-862337,Sc2InAg,"Ag, In, Sc",3,0.0,Cubic,225,Fm-3m,0.0,True,True,0.253118055460293,Sc: 0.5000; In: 0.2500; Ag: 0.2500
mp-1188019,Zr2ReRh,"Re, Rh, Zr",3,0.010191826099994472,Cubic,225,Fm-3m,0.0,True,True,0.40305086527633194,Zr: 0.5000; Re: 0.2500; Rh: 0.2500
mp-862747,Sr2PtAu,"Au, Pt, Sr",3,0.05933732750000331,Cubic,225,Fm-3m,0.0,True,True,0.7357649081058433,Sr: 0.5000; Pt: 0.2500; Au: 0.2500
mp-862911,Ti2CoTc,"Co, Tc, Ti",3,0.0,Cubic,225,Fm-3m,0.0,True,True,0.17514279888136988,Ti: 0.5000; Co: 0.2500; Tc: 0.2500
mp-867901,ScTaTc2,"Sc, Ta, Tc",3,0.03792005031250234,Cubic,225,Fm-3m,0.0,True,True,0.24015619917045647,Sc: 0.2500; Ta: 0.2500; Tc: 0.5000