material_id,formula,elements,num_elements,energy_above_hull,crystal_system,spacegroup_number,spacegroup_symbol,band_gap,theoretical,is_metal,electronegativity_difference,atomic_concentrations
mp-1217171,TiAlFe,"Al, Fe, Ti",3,0.0711630999999997,Orthorhombic,38,Amm2,0.0,True,True,0.12355835328567093,Ti: 0.3333; Al: 0.3333; Fe: 0.3333
mp-1023399,LiMg6Al,"Al, Li, Mg",3,0.060514206874999976,Orthorhombic,38,Amm2,0.0,True,True,0.1576338716773778,Li: 0.1250; Mg: 0.7500; Al: 0.1250
mp-1026771,LiHfMg14,"Hf, Li, Mg",3,0.09278466375000027,Orthorhombic,38,Amm2,0.0,True,True,0.07975548570474637,Li: 0.0625; Hf: 0.0625; Mg: 0.8750
mp-1220500,NbAlNi,"Al, Nb, Ni",3,0.012097076508771565,Orthorhombic,38,Amm2,0.0,True,True,0.1438363267359427,Nb: 0.3333; Al: 0.3333; Ni: 0.3333
mp-1215286,ZrMnFe,"Fe, Mn, Zr",3,0.013933219166672117,Orthorhombic,38,Amm2,0.0,True,True,0.2046134567096374,Zr: 0.3333; Mn: 0.3333; Fe: 0.3333
mp-1220484,NbAlCu,"Al, Cu, Nb",3,0.0,Orthorhombic,38,Amm2,0.0,True,True,0.13912424503139462,Nb: 0.3333; Al: 0.3333; Cu: 0.3333
mp-1219292,ScZnCu,"Cu, Sc, Zn",3,0.007689837916665887,Orthorhombic,38,Amm2,0.0,True,True,0.2206555888458048,Sc: 0.3333; Zn: 0.3333; Cu: 0.3333
mp-1028030,YMg14Cd,"Cd, Mg, Y",3,0.049953535000000215,Orthorhombic,38,Amm2,0.0,True,True,0.095930883322317,Y: 0.0625; Mg: 0.8750; Cd: 0.0625
mp-1028273,NaMg14Sn,"Mg, Na, Sn",3,0.0506346981250001,Orthorhombic,38,Amm2,0.0,True,True,0.18747395652463303,Na: 0.0625; Mg: 0.8750; Sn: 0.0625
mp-1022050,Mg6GaCu,"Cu, Ga, Mg",3,0.09903157718750011,Orthorhombic,38,Amm2,0.0,True,True,0.2370620962954643,Mg: 0.7500; Ga: 0.1250; Cu: 0.1250
mp-1027953,YMg14Bi,"Bi, Mg, Y",3,0.08428219812499993,Orthorhombic,38,Amm2,0.0,True,True,0.17467380313029196,Y: 0.0625; Mg: 0.8750; Bi: 0.0625
mp-1026653,NaMg14Cd,"Cd, Mg, Na",3,0.05245437897629324,Orthorhombic,38,Amm2,0.0,True,True,0.13435028842544403,Na: 0.0625; Mg: 0.8750; Cd: 0.0625
mp-1216946,TiMnCr,"Cr, Mn, Ti",3,0.0,Orthorhombic,38,Amm2,0.0,True,True,0.054365021434333576,Ti: 0.3333; Mn: 0.3333; Cr: 0.3333
mp-1099299,Mg6CdSn,"Cd, Mg, Sn",3,0.060431923124999454,Orthorhombic,38,Amm2,0.0,True,True,0.23299342801890352,Mg: 0.7500; Cd: 0.1250; Sn: 0.1250
mp-1216127,YAlNi,"Al, Ni, Y",3,0.07563611777777712,Orthorhombic,38,Amm2,0.0,True,True,0.28248893783651063,Y: 0.3333; Al: 0.3333; Ni: 0.3333
mp-1023398,Mg6AlSn,"Al, Mg, Sn",3,0.06825984338541646,Orthorhombic,38,Amm2,0.0,True,True,0.2235194342780958,Mg: 0.7500; Al: 0.1250; Sn: 0.1250
mp-1022134,LiMg6Cu,"Cu, Li, Mg",3,0.07802602052083252,Orthorhombic,38,Amm2,0.0,True,True,0.23678840765544243,Li: 0.1250; Mg: 0.7500; Cu: 0.1250
mp-1216414,VCrCo,"Co, Cr, V",3,0.0978972424074076,Orthorhombic,38,Amm2,0.0,True,True,0.11145502331533658,V: 0.3333; Cr: 0.3333; Co: 0.3333
mp-1224488,HfAlFe,"Al, Fe, Hf",3,0.02134626583332988,Orthorhombic,38,Amm2,0.0,True,True,0.21740898478827103,Hf: 0.3333; Al: 0.3333; Fe: 0.3333
mp-1026506,Mg14CrCd,"Cd, Cr, Mg",3,0.09792481531250008,Orthorhombic,38,Amm2,0.0,True,True,0.12082884330738249,Mg: 0.8750; Cr: 0.0625; Cd: 0.0625
mp-1028168,CaMg14Zr,"Ca, Mg, Zr",3,0.0857181021875002,Orthorhombic,38,Amm2,0.0,True,True,0.07551645102227728,Ca: 0.0625; Mg: 0.8750; Zr: 0.0625
mp-1028078,Mg14MnBi,"Bi, Mg, Mn",3,0.08969099684806014,Orthorhombic,38,Amm2,0.0,True,True,0.17771004297731738,Mg: 0.8750; Mn: 0.0625; Bi: 0.0625
mp-1022844,YMg6Sn,"Mg, Sn, Y",3,0.09680577823863512,Orthorhombic,38,Amm2,0.0,True,True,0.22118996360594662,Y: 0.1250; Mg: 0.7500; Sn: 0.1250
mp-1022110,LiMg6Cu,"Cu, Li, Mg",3,0.08084828114583331,Orthorhombic,38,Amm2,0.0,True,True,0.23678840765544243,Li: 0.1250; Mg: 0.7500; Cu: 0.1250
mp-1215305,ZrCrCo,"Co, Cr, Zr",3,0.026843250000002428,Orthorhombic,38,Amm2,0.0,True,True,0.2260285134421957,Zr: 0.3333; Cr: 0.3333; Co: 0.3333
mp-1026841,NaLiMg14,"Li, Mg, Na",3,0.053258909903017404,Orthorhombic,38,Amm2,0.0,True,True,0.11773745952329702,Na: 0.0625; Li: 0.0625; Mg: 0.8750
mp-1026762,LaMg14Ga,"Ga, La, Mg",3,0.08780284635416669,Orthorhombic,38,Amm2,0.0,True,True,0.1343604643300997,La: 0.0625; Mg: 0.8750; Ga: 0.0625
mp-1026897,Mg14GaCu,"Cu, Ga, Mg",3,0.06055507984375019,Orthorhombic,38,Amm2,0.0,True,True,0.1809426273021368,Mg: 0.8750; Ga: 0.0625; Cu: 0.0625
mp-1026410,Mg14CrSn,"Cr, Mg, Sn",3,0.09510029250000018,Orthorhombic,38,Amm2,0.0,True,True,0.1736555498681225,Mg: 0.8750; Cr: 0.0625; Sn: 0.0625
mp-1215315,ZrMnNi,"Mn, Ni, Zr",3,0.042726079583331966,Orthorhombic,38,Amm2,0.0,True,True,0.2390722810272147,Zr: 0.3333; Mn: 0.3333; Ni: 0.3333
mp-1219393,ScAlCo,"Al, Co, Sc",3,0.010345527499998397,Orthorhombic,38,Amm2,0.0,True,True,0.2123414441151064,Sc: 0.3333; Al: 0.3333; Co: 0.3333
mp-1027871,Mg14CuNi,"Cu, Mg, Ni",3,0.09244472541666693,Orthorhombic,38,Amm2,0.0,True,True,0.19678569403033336,Mg: 0.8750; Cu: 0.0625; Ni: 0.0625
mp-1215326,ZrAlRh,"Al, Rh, Zr",3,0.034173570037311585,Orthorhombic,38,Amm2,0.0,True,True,0.39858081572833703,Zr: 0.3333; Al: 0.3333; Rh: 0.3333
mp-1224402,HfAlMo,"Al, Hf, Mo",3,0.0,Orthorhombic,38,Amm2,0.0,True,True,0.3556215216584433,Hf: 0.3333; Al: 0.3333; Mo: 0.3333
mp-1023143,CaMg6Cd,"Ca, Cd, Mg",3,0.07907051875000026,Orthorhombic,38,Amm2,0.0,True,True,0.1731644810577504,Ca: 0.1250; Mg: 0.7500; Cd: 0.1250
mp-1218708,Sr2PtAu,"Au, Pt, Sr",3,0.0,Orthorhombic,38,Amm2,0.0,True,True,0.7357649081058433,Sr: 0.5000; Pt: 0.2500; Au: 0.2500
mp-1028202,Mg14AlZn,"Al, Mg, Zn",3,0.04029391104270852,Orthorhombic,38,Amm2,0.0,True,True,0.10606601717798211,Mg: 0.8750; Al: 0.0625; Zn: 0.0625
mp-1216998,Zr5Ti5Pb6,"Pb, Ti, Zr",3,0.0,Orthorhombic,38,Amm2,0.0,True,True,0.44116987586982864,Zr: 0.3125; Ti: 0.3125; Pb: 0.3750
mp-1215259,ZrTiPt,"Pt, Ti, Zr",3,0.06710438305555755,Orthorhombic,38,Amm2,0.0,True,True,0.4074582459862877,Zr: 0.3333; Ti: 0.3333; Pt: 0.3333
mp-1228855,CsRb2Au7,"Au, Cs, Rb",3,0.0,Orthorhombic,38,Amm2,0.0,True,True,0.792823435576926,Cs: 0.1000; Rb: 0.2000; Au: 0.7000
mp-1028329,Mg14NiBi,"Bi, Mg, Ni",3,0.08767751067708329,Orthorhombic,38,Amm2,0.0,True,True,0.21749191795328854,Mg: 0.8750; Ni: 0.0625; Bi: 0.0625
mp-1227330,Ca2GaSn,"Ca, Ga, Sn",3,0.021129061761361534,Orthorhombic,38,Amm2,0.0,True,True,0.4456666355023674,Ca: 0.5000; Ga: 0.2500; Sn: 0.2500
mp-1219358,ScAlFe,"Al, Fe, Sc",3,0.0,Orthorhombic,38,Amm2,0.0,True,True,0.19200694431886223,Sc: 0.3333; Al: 0.3333; Fe: 0.3333
mp-1017055,Mg6CdGa,"Cd, Ga, Mg",3,0.05538549562499995,Orthorhombic,38,Amm2,0.0,True,True,0.19287301521985908,Mg: 0.7500; Cd: 0.1250; Ga: 0.1250
mp-1216085,Y3(ZnAu2)2,"Au, Y, Zn",3,0.0,Orthorhombic,38,Amm2,0.0,True,True,0.591450664797064,Y: 0.5000; Zn: 0.1667; Au: 0.3333
mp-1017287,NaMg6Cd,"Cd, Mg, Na",3,0.06939084232758619,Orthorhombic,38,Amm2,0.0,True,True,0.18999999999999997,Na: 0.1250; Mg: 0.7500; Cd: 0.1250
mp-1208999,ScAgSn,"Ag, Sc, Sn",3,0.0,Orthorhombic,46,Ima2,0.0,True,True,0.27604347483684516,Sc: 0.3333; Ag: 0.3333; Sn: 0.3333
mp-570879,CaCuSn,"Ca, Cu, Sn",3,0.0,Orthorhombic,44,Imm2,0.0,False,True,0.4390899680020029,Ca: 0.3333; Cu: 0.3333; Sn: 0.3333
mp-1071278,CaSnAu,"Au, Ca, Sn",3,0.012978114166666721,Orthorhombic,44,Imm2,0.0,False,True,0.6350503042191924,Ca: 0.3333; Sn: 0.3333; Au: 0.3333
mp-1216062,YCr5Fe7,"Cr, Fe, Y",3,0.04744911999999779,Orthorhombic,44,Imm2,0.0,True,True,0.16469803820016274,Y: 0.0769; Cr: 0.3846; Fe: 0.5385
mp-1216017,YAl7Cu5,"Al, Cu, Y",3,0.0,Orthorhombic,44,Imm2,0.0,True,True,0.1933846765803709,Y: 0.0769; Al: 0.5385; Cu: 0.3846
mp-1216026,YFe11Re,"Fe, Re, Y",3,0.018152233557696462,Orthorhombic,44,Imm2,0.0,True,True,0.16515010206783937,Y: 0.0769; Fe: 0.8462; Re: 0.0769
mp-1215338,ZrAl5Cu7,"Al, Cu, Zr",3,0.0,Orthorhombic,44,Imm2,0.0,True,True,0.18219243354276998,Zr: 0.0769; Al: 0.3846; Cu: 0.5385
mp-1215964,YAl7Fe5,"Al, Fe, Y",3,0.011885873076927567,Orthorhombic,44,Imm2,0.0,True,True,0.16532557085550387,Y: 0.0769; Al: 0.5385; Fe: 0.3846
mp-1216077,Y4ZnGa3,"Ga, Y, Zn",3,0.020726358125000566,Orthorhombic,44,Imm2,0.0,True,True,0.27932955446926844,Y: 0.5000; Zn: 0.1250; Ga: 0.3750
mp-1215991,YTiCo11,"Co, Ti, Y",3,0.012407157988167938,Orthorhombic,44,Imm2,0.0,True,True,0.19100481731277455,Y: 0.0769; Ti: 0.0769; Co: 0.8462
mp-1218541,Sr3CaSn16,"Ca, Sn, Sr",3,0.018539021999999683,Orthorhombic,44,Imm2,0.0,True,True,0.39911746391256797,Sr: 0.1500; Ca: 0.0500; Sn: 0.8000
mp-1215844,YVFe11,"Fe, V, Y",3,0.002489990769234396,Orthorhombic,44,Imm2,0.0,True,True,0.16678654465900405,Y: 0.0769; V: 0.0769; Fe: 0.8462
mp-1217136,Ti8Al15Rh7,"Al, Rh, Ti",3,0.0,Orthorhombic,44,Imm2,0.0,True,True,0.29512351463224484,Ti: 0.2667; Al: 0.5000; Rh: 0.2333
mp-1216176,Y(CrFe3)3,"Cr, Fe, Y",3,0.023090213846153063,Orthorhombic,44,Imm2,0.0,True,True,0.2363556642012203,Y: 0.2000; Cr: 0.2000; Fe: 0.6000
mp-1224670,Hf2ScGa3,"Ga, Hf, Sc",3,0.019179103888891547,Orthorhombic,44,Imm2,0.0,True,True,0.2458149710656371,Hf: 0.3333; Sc: 0.1667; Ga: 0.5000
mp-1216008,YFe11Mo,"Fe, Mo, Y",3,0.009258552307692014,Orthorhombic,44,Imm2,0.0,True,True,0.19114417248390342,Y: 0.0769; Fe: 0.8462; Mo: 0.0769
mp-1223510,KBiPb,"Bi, K, Pb",3,0.0,Orthorhombic,44,Imm2,0.0,True,True,0.6511698873736579,K: 0.3333; Bi: 0.3333; Pb: 0.3333
mp-1216029,YCrFe11,"Cr, Fe, Y",3,0.005168920769234475,Orthorhombic,44,Imm2,0.0,True,True,0.1650640901170023,Y: 0.0769; Cr: 0.0769; Fe: 0.8462
mp-1216222,YIn7Cu5,"Cu, In, Y",3,0.05692323626373508,Orthorhombic,44,Imm2,0.0,True,True,0.17219776713394735,Y: 0.0769; In: 0.5385; Cu: 0.3846
mp-1222838,LaYNi10,"La, Ni, Y",3,0.0018046083333338458,Orthorhombic,47,Pmmm,0.0,True,True,0.28057975693196396,La: 0.0833; Y: 0.0833; Ni: 0.8333
mp-1224927,Fe3Ni3Pt2,"Fe, Ni, Pt",3,0.0077131649999957475,Orthorhombic,47,Pmmm,0.0,True,True,0.18088324963909722,Fe: 0.3750; Ni: 0.3750; Pt: 0.2500
mp-1229114,Al(V4Sn)3,"Al, Sn, V",3,0.0035472793750024323,Orthorhombic,47,Pmmm,0.0,True,True,0.12468850076178727,Al: 0.1667; V: 0.6667; Sn: 0.1667
mp-1216496,V9Ga2Sn,"Ga, Sn, V",3,0.010609642500000405,Orthorhombic,47,Pmmm,0.0,True,True,0.1056823069392413,V: 0.7500; Ga: 0.1667; Sn: 0.0833
mp-1222997,Li3LaGa8,"Ga, La, Li",3,0.08677557552083393,Orthorhombic,47,Pmmm,0.0,True,True,0.378314977528279,Li: 0.2500; La: 0.0833; Ga: 0.6667
mp-1225978,La2(InSn)3,"In, La, Sn",3,0.0,Orthorhombic,47,Pmmm,0.0,True,True,0.39022429447690715,La: 0.5000; In: 0.2500; Sn: 0.2500
mp-1218875,Sr2(AlAg)5,"Ag, Al, Sr",3,0.0,Orthorhombic,47,Pmmm,0.0,True,True,0.42532340636273475,Sr: 0.5000; Al: 0.2500; Ag: 0.2500
mp-1223251,La2(TlPb)3,"La, Pb, Tl",3,0.0035900800000021604,Orthorhombic,47,Pmmm,0.0,True,True,0.5043993953208112,La: 0.5000; Tl: 0.2500; Pb: 0.2500
mp-1217768,Ta2(PdRu)3,"Pd, Ru, Ta",3,0.025227116249997295,Orthorhombic,47,Pmmm,0.0,True,True,0.3500000000000001,Ta: 0.5000; Pd: 0.2500; Ru: 0.2500
mp-1223249,La2(TlSn)3,"La, Sn, Tl",3,0.0,Orthorhombic,47,Pmmm,0.0,True,True,0.3653423052426313,La: 0.5000; Tl: 0.2500; Sn: 0.2500
mp-1216214,Y2(CoCu)5,"Co, Cu, Y",3,0.09576031295752063,Orthorhombic,47,Pmmm,0.0,True,True,0.3350746185553301,Y: 0.5000; Co: 0.2500; Cu: 0.2500
mp-1215586,Zr2(PdRh)3,"Pd, Rh, Zr",3,0.03486794187499953,Orthorhombic,47,Pmmm,0.0,True,True,0.45587827322652696,Zr: 0.5000; Pd: 0.2500; Rh: 0.2500
mp-1218977,Sn2(PdPt)3,"Pd, Pt, Sn",3,0.0,Orthorhombic,47,Pmmm,0.0,True,True,0.142828568570857,Sn: 0.5000; Pd: 0.2500; Pt: 0.2500
mp-1222814,LaYCo10,"Co, La, Y",3,0.030007761666662525,Orthorhombic,47,Pmmm,0.0,True,True,0.26944387170614953,La: 0.0833; Y: 0.0833; Co: 0.8333
mp-1216238,Y2(InSn)3,"In, Sn, Y",3,0.026659823437499952,Orthorhombic,47,Pmmm,0.0,True,True,0.3311721606657178,Y: 0.5000; In: 0.2500; Sn: 0.2500
mp-1216156,Y2(CuNi)5,"Cu, Ni, Y",3,0.0,Orthorhombic,47,Pmmm,0.0,True,True,0.34251824768908296,Y: 0.5000; Cu: 0.2500; Ni: 0.2500
mp-1227788,Ca2(TlPb)3,"Ca, Pb, Tl",3,0.0,Orthorhombic,47,Pmmm,0.0,True,True,0.5483327001009515,Ca: 0.5000; Tl: 0.2500; Pb: 0.2500
mp-1229051,Al3NiMo12,"Al, Mo, Ni",3,0.04783933874999846,Orthorhombic,47,Pmmm,0.0,True,True,0.2156929240842175,Al: 0.1875; Ni: 0.0625; Mo: 0.7500
mp-1220758,Nb12IrAu3,"Au, Ir, Nb",3,0.01212051906250089,Orthorhombic,47,Pmmm,0.0,True,True,0.3774730950677147,Nb: 0.7500; Ir: 0.0625; Au: 0.1875
mp-1221007,Nb12InSn3,"In, Nb, Sn",3,0.011671361874999064,Orthorhombic,47,Pmmm,0.0,True,True,0.14185710239533297,Nb: 0.7500; In: 0.0625; Sn: 0.1875
mp-1223263,La2(CoNi)5,"Co, La, Ni",3,0.0914685887500033,Orthorhombic,47,Pmmm,0.0,True,True,0.39764148425434676,La: 0.5000; Co: 0.2500; Ni: 0.2500
mp-1213339,CuSnPd2,"Cu, Pd, Sn",3,0.05267876020833384,Orthorhombic,47,Pmmm,0.0,True,True,0.13665650368716462,Cu: 0.2500; Sn: 0.2500; Pd: 0.5000
mp-1220944,Nb12Al3In,"Al, In, Nb",3,0.044235223000001156,Orthorhombic,47,Pmmm,0.0,True,True,0.043260656201680514,Nb: 0.7500; Al: 0.1875; In: 0.0625
mp-1228971,AlV9Au2,"Al, Au, V",3,0.0,Orthorhombic,47,Pmmm,0.0,True,True,0.3399264626356707,Al: 0.0833; V: 0.7500; Au: 0.1667
mp-1223431,La2(SnPb)3,"La, Pb, Sn",3,0.009601549999997516,Orthorhombic,47,Pmmm,0.0,True,True,0.5386267260357585,La: 0.5000; Sn: 0.2500; Pb: 0.2500
mp-1215412,Zr2(ZnGa)3,"Ga, Zn, Zr",3,0.0,Orthorhombic,47,Pmmm,0.0,True,True,0.20784609690826525,Zr: 0.5000; Zn: 0.2500; Ga: 0.2500
mp-1223292,La2(CuNi)5,"Cu, La, Ni",3,0.00020041250000701893,Orthorhombic,47,Pmmm,0.0,True,True,0.4025155276507975,La: 0.5000; Cu: 0.2500; Ni: 0.2500
mp-1220742,Nb12Al3Ga,"Al, Ga, Nb",3,0.04778538909375385,Orthorhombic,47,Pmmm,0.0,True,True,0.05049752469181038,Nb: 0.7500; Al: 0.1875; Ga: 0.0625
mp-1216252,Y2(InPb)3,"In, Pb, Y",3,0.029196923749999826,Orthorhombic,47,Pmmm,0.0,True,True,0.46056351353532127,Y: 0.5000; In: 0.2500; Pb: 0.2500
mp-1105163,CuSnPd2,"Cu, Pd, Sn",3,0.06326251124999871,Orthorhombic,47,Pmmm,0.0,False,True,0.13665650368716462,Cu: 0.2500; Sn: 0.2500; Pd: 0.5000
mp-1224715,Fe2(PdAu)3,"Au, Fe, Pd",3,0.07414851333333417,Orthorhombic,47,Pmmm,0.0,True,True,0.295550334122633,Fe: 0.5000; Pd: 0.2500; Au: 0.2500
mp-1216167,Y2(CoNi)5,"Co, Ni, Y",3,0.07848108008546273,Orthorhombic,47,Pmmm,0.0,True,True,0.3376666255347128,Y: 0.5000; Co: 0.2500; Ni: 0.2500
mp-1211555,LaGa4Os,"Ga, La, Os",3,0.0,Orthorhombic,51,Pmma,0.0,True,True,0.32637742296645184,La: 0.1667; Ga: 0.6667; Os: 0.1667
mp-21220,CaIn4Rh,"Ca, In, Rh",3,0.0,Orthorhombic,51,Pmma,0.0,False,True,0.3753516869402465,Ca: 0.1667; In: 0.6667; Rh: 0.1667
mp-1079716,YInCo2,"Co, In, Y",3,0.020639252058823665,Orthorhombic,51,Pmma,0.0,False,True,0.27440845468024483,Y: 0.2500; In: 0.2500; Co: 0.5000
mp-646125,Y5Mg8Cu5,"Cu, Mg, Y",3,0.0007760661458315887,Orthorhombic,51,Pmma,0.0,False,True,0.28223097099300476,Y: 0.2778; Mg: 0.4444; Cu: 0.2778
mp-21207,LaInNi2,"In, La, Ni",3,0.0,Orthorhombic,51,Pmma,0.0,False,True,0.3361919094802847,La: 0.2500; In: 0.2500; Ni: 0.5000
mp-867851,Rb2TlAu3,"Au, Rb, Tl",3,0.0,Orthorhombic,51,Pmma,0.0,False,True,0.7740513907716693,Rb: 0.3333; Tl: 0.1667; Au: 0.5000
mp-21901,SrIn4Ir,"In, Ir, Sr",3,0.0,Orthorhombic,51,Pmma,0.0,False,True,0.37356019892678916,Sr: 0.1667; In: 0.6667; Ir: 0.1667
mp-20838,CaIn4Ir,"Ca, In, Ir",3,0.0,Orthorhombic,51,Pmma,0.0,False,True,0.3566510900025402,Ca: 0.1667; In: 0.6667; Ir: 0.1667
mp-639150,BaIn4Ir,"Ba, In, Ir",3,0.0011990578703739985,Orthorhombic,51,Pmma,0.0,False,True,0.394056538526587,Ba: 0.1667; In: 0.6667; Ir: 0.1667
mp-12274,LaAl4Co,"Al, Co, La",3,0.0,Orthorhombic,51,Pmma,0.0,False,True,0.23216373532487794,La: 0.1667; Al: 0.6667; Co: 0.1667
mp-1214332,BaSrBi3,"Ba, Bi, Sr",3,0.0,Orthorhombic,52,Pnna,0.0,True,True,0.5392216612859687,Ba: 0.2000; Sr: 0.2000; Bi: 0.6000
mp-1219142,Sc3Ga5Ni,"Ga, Ni, Sc",3,0.09051628430555425,Monoclinic,5,C2,0.0,True,True,0.22208328990340756,Sc: 0.3333; Ga: 0.5556; Ni: 0.1111
mp-1223136,La8(BiPb)3,"Bi, La, Pb",3,0.004914662499996503,Monoclinic,5,C2,0.0,True,True,0.4355513746964874,La: 0.8000; Bi: 0.1000; Pb: 0.1000
mp-1222199,Na20Zn8Sn11,"Na, Sn, Zn",3,0.0,Monoclinic,5,C2,0.023199999999999665,True,False,0.4621070571646724,Na: 0.5128; Zn: 0.2051; Sn: 0.2821
mp-606675,MnGaNi2,"Ga, Mn, Ni",3,0.0030700194642836465,Orthorhombic,58,Pnnm,0.0,False,True,0.14722431864335453,Mn: 0.2500; Ga: 0.2500; Ni: 0.5000
mp-1224933,La2(InCu3)3,"Cu, In, La",3,0.021249301964287426,Orthorhombic,58,Pnnm,0.0,True,True,0.3654525352977531,La: 0.3333; In: 0.1667; Cu: 0.5000
mp-1194481,Sr3Sn3Au8,"Au, Sn, Sr",3,0.0,Orthorhombic,58,Pnnm,0.0,False,True,0.6305524788401269,Sr: 0.2143; Sn: 0.2143; Au: 0.5714
mp-1203883,LaInCu5,"Cu, In, La",3,0.0,Orthorhombic,58,Pnnm,0.0,False,True,0.2760656532384265,La: 0.1429; In: 0.1429; Cu: 0.7143
mp-18500,K3Sn4Au,"Au, K, Sn",3,0.0,Orthorhombic,59,Pmmn,0.3972000000000002,False,False,0.6351180992539892,K: 0.3750; Sn: 0.5000; Au: 0.1250
mp-570936,K(SnAu)3,"Au, K, Sn",3,0.0,Orthorhombic,59,Pmmn,0.0,False,True,0.7144850515503378,K: 0.3333; Sn: 0.3333; Au: 0.3333
mp-1191828,Zr3(CrGa3)2,"Cr, Ga, Zr",3,0.053876493181817864,Orthorhombic,59,Pmmn,0.0,False,True,0.22441761362718934,Zr: 0.4286; Cr: 0.1429; Ga: 0.4286
mp-1079193,TiCuNi2,"Cu, Ni, Ti",3,0.021118203437501037,Orthorhombic,59,Pmmn,0.0,False,True,0.15882380174268587,Ti: 0.2500; Cu: 0.2500; Ni: 0.5000
mp-12759,Zn2CuAu,"Au, Cu, Zn",3,0.0,Orthorhombic,59,Pmmn,0.0,False,True,0.3639024594585753,Zn: 0.5000; Cu: 0.2500; Au: 0.2500
mp-581716,Sr(InAu)3,"Au, In, Sr",3,0.0,Orthorhombic,59,Pmmn,0.0,False,True,0.6493244352573082,Sr: 0.3333; In: 0.3333; Au: 0.3333
mp-637052,Hf3(MnGa3)2,"Ga, Hf, Mn",3,0.0,Orthorhombic,59,Pmmn,0.0,False,True,0.23609060868701254,Hf: 0.4286; Mn: 0.1429; Ga: 0.4286
mp-1190672,Hf3(CrGa3)2,"Cr, Ga, Hf",3,0.02315127613636392,Orthorhombic,59,Pmmn,0.0,False,True,0.23892616911028033,Hf: 0.4286; Cr: 0.1429; Ga: 0.4286
mp-1190467,K6ZnBi5,"Bi, K, Zn",3,0.0,Orthorhombic,59,Pmmn,0.0,False,True,0.5774579109241547,K: 0.5000; Zn: 0.0833; Bi: 0.4167
mp-1183951,Cs3Pb4Au,"Au, Cs, Pb",3,0.0,Orthorhombic,59,Pmmn,0.7054,True,False,0.7687560975367935,Cs: 0.3750; Pb: 0.5000; Au: 0.1250
mp-17401,Rb3Sn4Au,"Au, Rb, Sn",3,0.0,Orthorhombic,59,Pmmn,0.5812999999999997,False,False,0.6351180992539892,Rb: 0.3750; Sn: 0.5000; Au: 0.1250
mp-608081,Rb3Pb4Au,"Au, Pb, Rb",3,0.07623411820312587,Orthorhombic,59,Pmmn,0.15739999999999998,False,False,0.754287743503764,Rb: 0.3750; Pb: 0.5000; Au: 0.1250
mp-1201536,K12Sn4Au21,"Au, K, Sn",3,0.0,Orthorhombic,59,Pmmn,0.0,False,True,0.7815229274911277,K: 0.3243; Sn: 0.1081; Au: 0.5676
mp-1181655,Cs3Sn4Au,"Au, Cs, Sn",3,0.04230318751762496,Orthorhombic,59,Pmmn,0.7143999999999999,True,False,0.6490365455812176,Cs: 0.3750; Sn: 0.5000; Au: 0.1250
mp-1191025,Zr3(MnGa3)2,"Ga, Mn, Zr",3,0.0,Orthorhombic,59,Pmmn,0.0,False,True,0.2223070133020218,Zr: 0.4286; Mn: 0.1429; Ga: 0.4286
mp-607848,La(In2Ni)3,"In, La, Ni",3,0.015141099500000088,Orthorhombic,59,Pmmn,0.0,False,True,0.3176771159526603,La: 0.2500; In: 0.5000; Ni: 0.2500
mp-1191713,Hf3(VGa3)2,"Ga, Hf, V",3,0.0,Orthorhombic,59,Pmmn,0.0,False,True,0.23753839646658886,Hf: 0.4286; V: 0.1429; Ga: 0.4286
mp-18645,Sc5(In2Rh)2,"In, Rh, Sc",3,0.0,Orthorhombic,55,Pbam,0.0,False,True,0.3185906464414797,Sc: 0.6250; In: 0.2500; Rh: 0.1250
mp-30447,Sr9Cd4Bi9,"Bi, Cd, Sr",3,0.0,Orthorhombic,55,Pbam,0.0,False,True,0.4903424760324695,Sr: 0.4091; Cd: 0.1818; Bi: 0.4091
mp-510052,Hf5(In2Rh)2,"Hf, In, Rh",3,0.0,Orthorhombic,55,Pbam,0.0,False,True,0.3447372187623494,Hf: 0.6250; In: 0.2500; Rh: 0.1250
mp-30446,Ca9Cd4Bi9,"Bi, Ca, Cd",3,0.0,Orthorhombic,55,Pbam,0.0,False,True,0.46650715495031236,Ca: 0.4091; Cd: 0.1818; Bi: 0.4091
mp-640825,Sr5(InBi3)2,"Bi, In, Sr",3,0.0,Orthorhombic,55,Pbam,0.0,False,True,0.5066325524577715,Sr: 0.5556; In: 0.1111; Bi: 0.3333
mp-1198475,La(Ga4Fe)2,"Fe, Ga, La",3,0.016666343409089457,Orthorhombic,55,Pbam,0.0,False,True,0.2661922863896197,La: 0.1667; Ga: 0.6667; Fe: 0.1667
mp-1079757,La2InNi2,"In, La, Ni",3,0.013184175000000131,Orthorhombic,55,Pbam,0.0,False,True,0.37857628029236057,La: 0.4000; In: 0.2000; Ni: 0.4000
mp-1190710,Sc5(In2Co)2,"Co, In, Sc",3,0.0,Orthorhombic,55,Pbam,0.0,False,True,0.2213594362117865,Sc: 0.6250; In: 0.2500; Co: 0.1250
mp-1202535,Ca(Al4Ni)2,"Al, Ca, Ni",3,0.0013025745454564586,Orthorhombic,55,Pbam,0.0,False,True,0.2726668704155718,Ca: 0.1667; Al: 0.6667; Ni: 0.1667
mp-1194987,Sr(In4Ir)2,"In, Ir, Sr",3,0.0,Orthorhombic,55,Pbam,0.0,False,True,0.37356019892678916,Sr: 0.1667; In: 0.6667; Ir: 0.1667