material_id,formula,elements,num_elements,energy_above_hull,crystal_system,spacegroup_number,spacegroup_symbol,band_gap,theoretical,is_metal,electronegativity_difference,atomic_concentrations
mp-1223198,LaGa3Co10,"Co, Ga, La",3,0.023611921071426067,Orthorhombic,42,Fmm2,0.0,True,True,0.1987627546927774,La: 0.0714; Ga: 0.2143; Co: 0.7143
mp-1219021,Sn7Ir2Os,"Ir, Os, Sn",3,0.0016294256249977934,Orthorhombic,42,Fmm2,0.0,True,True,0.10998181667894026,Sn: 0.7000; Ir: 0.2000; Os: 0.1000
mp-1023483,Mg6AlZn,"Al, Mg, Zn",3,0.06280160333541684,Orthorhombic,38,Amm2,0.0,True,True,0.13892443989449801,Mg: 0.7500; Al: 0.1250; Zn: 0.1250
mp-1219356,ScAlCu,"Al, Cu, Sc",3,0.010795901666666552,Orthorhombic,38,Amm2,0.0,True,True,0.2206555888458048,Sc: 0.3333; Al: 0.3333; Cu: 0.3333
mp-1028173,CaMg14Zn,"Ca, Mg, Zn",3,0.06342024031249993,Orthorhombic,38,Amm2,0.0,True,True,0.1150118879725048,Ca: 0.0625; Mg: 0.8750; Zn: 0.0625
mp-1026898,Mg14CuBi,"Bi, Cu, Mg",3,0.07678096999999973,Orthorhombic,38,Amm2,0.0,True,True,0.21601142909577722,Mg: 0.8750; Cu: 0.0625; Bi: 0.0625
mp-1022594,Mg6ZnGa,"Ga, Mg, Zn",3,0.06568019307500039,Orthorhombic,38,Amm2,0.0,True,True,0.18621224449536072,Mg: 0.7500; Zn: 0.1250; Ga: 0.1250
mp-1017037,Mg6CdGa,"Cd, Ga, Mg",3,0.05215514999999993,Orthorhombic,38,Amm2,0.0,True,True,0.19287301521985908,Mg: 0.7500; Cd: 0.1250; Ga: 0.1250
mp-1021414,NaMg6Sn,"Mg, Na, Sn",3,0.09156217374999986,Orthorhombic,38,Amm2,0.0,True,True,0.2640519598488146,Na: 0.1250; Mg: 0.7500; Sn: 0.1250
mp-1028014,Mg14ZnSn,"Mg, Sn, Zn",3,0.04696377872500013,Orthorhombic,38,Amm2,0.0,True,True,0.17263468473919136,Mg: 0.8750; Zn: 0.0625; Sn: 0.0625
mp-1017184,Mg6CdBi,"Bi, Cd, Mg",3,0.06791711281249913,Orthorhombic,38,Amm2,0.0,True,True,0.2499968749804685,Mg: 0.7500; Cd: 0.1250; Bi: 0.1250
mp-1227155,CaMgZn,"Ca, Mg, Zn",3,0.030888439166665504,Orthorhombic,38,Amm2,0.0,True,True,0.2654555832275272,Ca: 0.3333; Mg: 0.3333; Zn: 0.3333
mp-1215568,Zr5Ir2Os,"Ir, Os, Zr",3,0.028781046302079005,Orthorhombic,38,Amm2,0.0,True,True,0.42118693890005665,Zr: 0.6250; Ir: 0.2500; Os: 0.1250
mp-1028253,Mg14AlCu,"Al, Cu, Mg",3,0.07620119322916685,Orthorhombic,38,Amm2,0.0,True,True,0.15584322049739602,Mg: 0.8750; Al: 0.0625; Cu: 0.0625
mp-1023266,Mg6AlGa,"Al, Ga, Mg",3,0.06070147651041724,Orthorhombic,38,Amm2,0.0,True,True,0.18027756377319948,Mg: 0.7500; Al: 0.1250; Ga: 0.1250
mp-1027939,LiMg14Zr,"Li, Mg, Zr",3,0.06869430437500013,Orthorhombic,38,Amm2,0.0,True,True,0.08034836261555056,Li: 0.0625; Mg: 0.8750; Zr: 0.0625
mp-1028188,CaLaMg14,"Ca, La, Mg",3,0.09490998124999983,Orthorhombic,38,Amm2,0.0,True,True,0.08778524933039719,Ca: 0.0625; La: 0.0625; Mg: 0.8750
mp-1021372,Mg6SnBi,"Bi, Mg, Sn",3,0.08580675281249883,Orthorhombic,38,Amm2,0.0,True,True,0.29483045975611133,Mg: 0.7500; Sn: 0.1250; Bi: 0.1250
mp-1027857,NaMg14Zr,"Mg, Na, Zr",3,0.09949849178879333,Orthorhombic,38,Amm2,0.0,True,True,0.09243240773668075,Na: 0.0625; Mg: 0.8750; Zr: 0.0625
mp-1028186,NaCaMg14,"Ca, Mg, Na",3,0.08164621335129318,Orthorhombic,38,Amm2,0.0,True,True,0.1147670875076997,Na: 0.0625; Ca: 0.0625; Mg: 0.8750
mp-1099313,LiMg6Ga,"Ga, Li, Mg",3,0.040333444124999396,Orthorhombic,38,Amm2,0.0,True,True,0.2107390269978487,Li: 0.1250; Mg: 0.7500; Ga: 0.1250
mp-1215306,ZrAlV,"Al, V, Zr",3,0.048618053888885626,Orthorhombic,38,Amm2,0.0,True,True,0.1369509238944942,Zr: 0.3333; Al: 0.3333; V: 0.3333
mp-1023485,Mg6AlZn,"Al, Mg, Zn",3,0.0662172770854168,Orthorhombic,38,Amm2,0.0,True,True,0.13892443989449801,Mg: 0.7500; Al: 0.1250; Zn: 0.1250
mp-1215757,Zr2Cr3Fe,"Cr, Fe, Zr",3,0.028076431666669066,Orthorhombic,38,Amm2,0.0,True,True,0.18559962883104647,Zr: 0.3333; Cr: 0.5000; Fe: 0.1667
mp-1027959,Mg14TiZn,"Mg, Ti, Zn",3,0.09027376437500023,Orthorhombic,38,Amm2,0.0,True,True,0.09623985336127645,Mg: 0.8750; Ti: 0.0625; Zn: 0.0625
mp-1017082,Mg6GaBi,"Bi, Ga, Mg",3,0.08393648531249909,Orthorhombic,38,Amm2,0.0,True,True,0.26718146923018443,Mg: 0.7500; Ga: 0.1250; Bi: 0.1250
mp-1028140,YMg14Mn,"Mg, Mn, Y",3,0.09034906544181043,Orthorhombic,38,Amm2,0.0,True,True,0.06339053064141363,Y: 0.0625; Mg: 0.8750; Mn: 0.0625
mp-1220546,NbCrFe,"Cr, Fe, Nb",3,0.019196132499999408,Orthorhombic,38,Amm2,0.0,True,True,0.09741092797468306,Nb: 0.3333; Cr: 0.3333; Fe: 0.3333
mp-1021394,Mg6GaSn,"Ga, Mg, Sn",3,0.07196585874999961,Orthorhombic,38,Amm2,0.0,True,True,0.25179046348104606,Mg: 0.7500; Ga: 0.1250; Sn: 0.1250
mp-1027945,LaMg14Zr,"La, Mg, Zr",3,0.08752200281249989,Orthorhombic,38,Amm2,0.0,True,True,0.0513832110226677,La: 0.0625; Mg: 0.8750; Zr: 0.0625
mp-1027969,YHfMg14,"Hf, Mg, Y",3,0.08333923468750015,Orthorhombic,38,Amm2,0.0,True,True,0.02175861898191153,Y: 0.0625; Hf: 0.0625; Mg: 0.8750
mp-1223202,La2NiPt,"La, Ni, Pt",3,0.003918211249999359,Orthorhombic,38,Amm2,0.0,True,True,0.5144110710317187,La: 0.5000; Ni: 0.2500; Pt: 0.2500
mp-1017180,Mg6CdBi,"Bi, Cd, Mg",3,0.07580626218749908,Orthorhombic,38,Amm2,0.0,True,True,0.2499968749804685,Mg: 0.7500; Cd: 0.1250; Bi: 0.1250
mp-1026404,Mg14NbSn,"Mg, Nb, Sn",3,0.09181913729166657,Orthorhombic,38,Amm2,0.0,True,True,0.16796111901270483,Mg: 0.8750; Nb: 0.0625; Sn: 0.0625
mp-1027840,Mg14ZrCd,"Cd, Mg, Zr",3,0.04549976921875021,Orthorhombic,38,Amm2,0.0,True,True,0.09178779875342907,Mg: 0.8750; Zr: 0.0625; Cd: 0.0625
mp-1215337,ZrTiNi,"Ni, Ti, Zr",3,0.06198088805555457,Orthorhombic,38,Amm2,0.0,True,True,0.23976840677805916,Zr: 0.3333; Ti: 0.3333; Ni: 0.3333
mp-1028291,Mg14TiSn,"Mg, Sn, Ti",3,0.07573236510416681,Orthorhombic,38,Amm2,0.0,True,True,0.1633630925270454,Mg: 0.8750; Ti: 0.0625; Sn: 0.0625
mp-1028066,YMg14Sn,"Mg, Sn, Y",3,0.06010686411931809,Orthorhombic,38,Amm2,0.0,True,True,0.16027320424824604,Y: 0.0625; Mg: 0.8750; Sn: 0.0625
mp-1215194,ZrVCo,"Co, V, Zr",3,0.01319764966666881,Orthorhombic,38,Amm2,0.0,True,True,0.2248456260538673,Zr: 0.3333; V: 0.3333; Co: 0.3333
mp-1222071,MgCoNi,"Co, Mg, Ni",3,0.016607688842593227,Orthorhombic,38,Amm2,0.0,True,True,0.27604347483684516,Mg: 0.3333; Co: 0.3333; Ni: 0.3333
mp-1027930,Mg14ZnGa,"Ga, Mg, Zn",3,0.04108399341250024,Orthorhombic,38,Amm2,0.0,True,True,0.14175242502334834,Mg: 0.8750; Zn: 0.0625; Ga: 0.0625
mp-1223589,La2CuSn4,"Cu, La, Sn",3,0.002996401678566407,Orthorhombic,38,Amm2,0.0,True,True,0.38362396554278966,La: 0.2857; Cu: 0.1429; Sn: 0.5714
mp-1022079,Mg6CdCu,"Cd, Cu, Mg",3,0.08402602968749995,Orthorhombic,38,Amm2,0.0,True,True,0.21647387255740583,Mg: 0.7500; Cd: 0.1250; Cu: 0.1250
mp-1215320,ZrCrCo,"Co, Cr, Zr",3,0.034741226666671565,Orthorhombic,38,Amm2,0.0,True,True,0.2260285134421957,Zr: 0.3333; Cr: 0.3333; Co: 0.3333
mp-1026575,Mg14CdSn,"Cd, Mg, Sn",3,0.037098822187499936,Orthorhombic,38,Amm2,0.0,True,True,0.17688162531761176,Mg: 0.8750; Cd: 0.0625; Sn: 0.0625
mp-1027972,NaMg14Zn,"Mg, Na, Zn",3,0.06735568551379334,Orthorhombic,38,Amm2,0.0,True,True,0.12745097096530883,Na: 0.0625; Mg: 0.8750; Zn: 0.0625
mp-1022592,Mg6ZnBi,"Bi, Mg, Zn",3,0.08873984026249948,Orthorhombic,38,Amm2,0.0,True,True,0.24543010715884062,Mg: 0.7500; Zn: 0.1250; Bi: 0.1250
mp-1022588,Mg6ZnBi,"Bi, Mg, Zn",3,0.09457902713749955,Orthorhombic,38,Amm2,0.0,True,True,0.24543010715884062,Mg: 0.7500; Zn: 0.1250; Bi: 0.1250
mp-1027922,Mg14ZnCd,"Cd, Mg, Zn",3,0.03888118716250011,Orthorhombic,38,Amm2,0.0,True,True,0.11926860441876559,Mg: 0.8750; Zn: 0.0625; Cd: 0.0625
mp-1022805,SrYMg6,"Mg, Sr, Y",3,0.05511444437499957,Orthorhombic,38,Amm2,0.0,True,True,0.11852610471959335,Sr: 0.1250; Y: 0.1250; Mg: 0.7500
mp-1217995,TaAlZn,"Al, Ta, Zn",3,0.0,Orthorhombic,38,Amm2,0.0,True,True,0.0634209919681348,Ta: 0.3333; Al: 0.3333; Zn: 0.3333
mp-1028235,Mg14AlCd,"Al, Cd, Mg",3,0.031643029505208586,Orthorhombic,38,Amm2,0.0,True,True,0.11333026956643136,Mg: 0.8750; Al: 0.0625; Cd: 0.0625
mp-1028134,CaMg14Cd,"Ca, Cd, Mg",3,0.056617240000000235,Orthorhombic,38,Amm2,0.0,True,True,0.122523913482226,Ca: 0.0625; Mg: 0.8750; Cd: 0.0625
mp-1026787,LiMg14Ga,"Ga, Li, Mg",3,0.0358047120624998,Orthorhombic,38,Amm2,0.0,True,True,0.1493933043178308,Li: 0.0625; Mg: 0.8750; Ga: 0.0625
mp-1023308,CaMg6Zn,"Ca, Mg, Zn",3,0.09405566687499967,Orthorhombic,38,Amm2,0.0,True,True,0.16262975588741438,Ca: 0.1250; Mg: 0.7500; Zn: 0.1250
mp-1026417,HfMg14Ga,"Ga, Hf, Mg",3,0.0996599004166665,Orthorhombic,38,Amm2,0.0,True,True,0.1212161679603839,Hf: 0.0625; Mg: 0.8750; Ga: 0.0625
mp-1215295,ZrCrFe,"Cr, Fe, Zr",3,0.030705898333339476,Orthorhombic,38,Amm2,0.0,True,True,0.20757863302587018,Zr: 0.3333; Cr: 0.3333; Fe: 0.3333
mp-1028102,Mg14MnGa,"Ga, Mg, Mn",3,0.08060505231681026,Orthorhombic,38,Amm2,0.0,True,True,0.13071318793450032,Mg: 0.8750; Mn: 0.0625; Ga: 0.0625
mp-1215191,ZrTiNi2,"Ni, Ti, Zr",3,0.039173400000000136,Orthorhombic,38,Amm2,0.0,True,True,0.24883478454589095,Zr: 0.2500; Ti: 0.2500; Ni: 0.5000
mp-1217064,TiCoNi2,"Co, Ni, Ti",3,0.019054988333334855,Orthorhombic,38,Amm2,0.0,True,True,0.15636495771111883,Ti: 0.2500; Co: 0.2500; Ni: 0.5000
mp-1027876,Mg14ZrBi,"Bi, Mg, Zr",3,0.05894881635416738,Orthorhombic,38,Amm2,0.0,True,True,0.17160888489527573,Mg: 0.8750; Zr: 0.0625; Bi: 0.0625
mp-1227320,Ca2GaAg,"Ag, Ca, Ga",3,0.05428217250000067,Orthorhombic,38,Amm2,0.0,True,True,0.43706406853000396,Ca: 0.5000; Ga: 0.2500; Ag: 0.2500
mp-1215357,ZrAlCo,"Al, Co, Zr",3,0.029018709882354443,Orthorhombic,38,Amm2,0.0,True,True,0.22454893057465714,Zr: 0.3333; Al: 0.3333; Co: 0.3333
mp-1026885,NaMg14Cu,"Cu, Mg, Na",3,0.08742072042571891,Orthorhombic,38,Amm2,0.0,True,True,0.17495423508735075,Na: 0.0625; Mg: 0.8750; Cu: 0.0625
mp-1028163,Mg14AlBi,"Al, Bi, Mg",3,0.06470169841145834,Orthorhombic,38,Amm2,0.0,True,True,0.18206175978222336,Mg: 0.8750; Al: 0.0625; Bi: 0.0625
mp-1218064,TaAlFe,"Al, Fe, Ta",3,0.06828810556666731,Orthorhombic,38,Amm2,0.0,True,True,0.1371941041817112,Ta: 0.3333; Al: 0.3333; Fe: 0.3333
mp-1028166,CaYMg14,"Ca, Mg, Y",3,0.07282227062499991,Orthorhombic,38,Amm2,0.0,True,True,0.07673004626611404,Ca: 0.0625; Y: 0.0625; Mg: 0.8750
mp-1022836,LaYMg6,"La, Mg, Y",3,0.06819064312500123,Orthorhombic,38,Amm2,0.0,True,True,0.07154544010627092,La: 0.1250; Y: 0.1250; Mg: 0.7500
mp-1219418,Sc3Ga5Co,"Co, Ga, Sc",3,0.0,Orthorhombic,38,Amm2,0.0,True,True,0.2186716349932411,Sc: 0.3333; Ga: 0.5556; Co: 0.1111
mp-1017288,NaMg6Ga,"Ga, Mg, Na",3,0.09054105982758665,Orthorhombic,38,Amm2,0.0,True,True,0.2215287791687572,Na: 0.1250; Mg: 0.7500; Ga: 0.1250
mp-1023163,LiCaMg6,"Ca, Li, Mg",3,0.08635931562499954,Orthorhombic,38,Amm2,0.0,True,True,0.1386542462386205,Li: 0.1250; Ca: 0.1250; Mg: 0.7500
mp-1215277,ZrMnAl,"Al, Mn, Zr",3,0.0073376816666508304,Orthorhombic,38,Amm2,0.0,True,True,0.12036980056845192,Zr: 0.3333; Mn: 0.3333; Al: 0.3333
mp-1218116,TaAlNi,"Al, Ni, Ta",3,0.031176616333340235,Orthorhombic,38,Amm2,0.0,True,True,0.1732692189115603,Ta: 0.3333; Al: 0.3333; Ni: 0.3333
mp-1217850,TaVCo,"Co, Ta, V",3,0.009944110037036324,Orthorhombic,38,Amm2,0.0,True,True,0.15769168230019823,Ta: 0.3333; V: 0.3333; Co: 0.3333
mp-1028154,Mg14MnSn,"Mg, Mn, Sn",3,0.07729359950431025,Orthorhombic,38,Amm2,0.0,True,True,0.16404910659616526,Mg: 0.8750; Mn: 0.0625; Sn: 0.0625
mp-1026522,Mg14NbCd,"Cd, Mg, Nb",3,0.09636307218750018,Orthorhombic,38,Amm2,0.0,True,True,0.11192736204789246,Mg: 0.8750; Nb: 0.0625; Cd: 0.0625
mp-1216089,YAlNi,"Al, Ni, Y",3,0.09779930333333375,Orthorhombic,38,Amm2,0.0,True,True,0.28248893783651063,Y: 0.3333; Al: 0.3333; Ni: 0.3333
mp-1026613,Mg14GaSn,"Ga, Mg, Sn",3,0.057432107812499966,Orthorhombic,38,Amm2,0.0,True,True,0.1920032144913204,Mg: 0.8750; Ga: 0.0625; Sn: 0.0625
mp-1215242,ZrTi2Al,"Al, Ti, Zr",3,0.04906002708333368,Orthorhombic,38,Amm2,0.0,True,True,0.105,Zr: 0.2500; Ti: 0.5000; Al: 0.2500
mp-1026648,Mg14SnBi,"Bi, Mg, Sn",3,0.06159334921874948,Orthorhombic,38,Amm2,0.0,True,True,0.22513884604838852,Mg: 0.8750; Sn: 0.0625; Bi: 0.0625
mp-966740,Cs5Tl11Cd2,"Cd, Cs, Tl",3,0.0,Orthorhombic,38,Amm2,0.0,False,True,0.3771944025087735,Cs: 0.2778; Tl: 0.6111; Cd: 0.1111
mp-1028046,LaYMg14,"La, Mg, Y",3,0.07872647187500048,Orthorhombic,38,Amm2,0.0,True,True,0.053953104637268094,La: 0.0625; Y: 0.0625; Mg: 0.8750
mp-1028213,YMg14Al,"Al, Mg, Y",3,0.06871883927083378,Orthorhombic,38,Amm2,0.0,True,True,0.07719445818839589,Y: 0.0625; Mg: 0.8750; Al: 0.0625
mp-1026660,NaMg14Bi,"Bi, Mg, Na",3,0.06486821020833378,Orthorhombic,38,Amm2,0.0,True,True,0.2002644735718245,Na: 0.0625; Mg: 0.8750; Bi: 0.0625
mp-1215392,Zr5Sc5Ga6,"Ga, Sc, Zr",3,0.018659761822918952,Orthorhombic,38,Amm2,0.0,True,True,0.2254292779897944,Zr: 0.3125; Sc: 0.3125; Ga: 0.3750
mp-1099077,Mg14GaNi,"Ga, Mg, Ni",3,0.0713824012500004,Orthorhombic,38,Amm2,0.0,True,True,0.18275239396516804,Mg: 0.8750; Ga: 0.0625; Ni: 0.0625
mp-1224426,HfAlIr,"Al, Hf, Ir",3,0.05011280940972718,Orthorhombic,38,Amm2,0.0,True,True,0.3733035702421765,Hf: 0.3333; Al: 0.3333; Ir: 0.3333
mp-1228329,Ba2PtAu,"Au, Ba, Pt",3,0.006256425000000121,Orthorhombic,38,Amm2,0.0,True,True,0.7655390257851,Ba: 0.5000; Pt: 0.2500; Au: 0.2500
mp-1026623,SrMg14Ga,"Ga, Mg, Sr",3,0.08710979531250018,Orthorhombic,38,Amm2,0.0,True,True,0.15378048478269277,Sr: 0.0625; Mg: 0.8750; Ga: 0.0625
mp-1026638,HfMg14Sn,"Hf, Mg, Sn",3,0.07024155075000138,Orthorhombic,38,Amm2,0.0,True,True,0.15751984002023361,Hf: 0.0625; Mg: 0.8750; Sn: 0.0625
mp-1023275,Mg6AlCd,"Al, Cd, Mg",3,0.053928237135416834,Orthorhombic,38,Amm2,0.0,True,True,0.14857657958103623,Mg: 0.7500; Al: 0.1250; Cd: 0.1250
mp-1215241,ZrVFe,"Fe, V, Zr",3,0.017707886666666894,Orthorhombic,38,Amm2,0.0,True,True,0.20548046676563253,Zr: 0.3333; V: 0.3333; Fe: 0.3333
mp-1028139,CaMg14Ga,"Ca, Ga, Mg",3,0.06181979750000011,Orthorhombic,38,Amm2,0.0,True,True,0.14659547869903766,Ca: 0.0625; Mg: 0.8750; Ga: 0.0625
mp-1028317,LaMg14Sn,"La, Mg, Sn",3,0.0746472698883931,Orthorhombic,38,Amm2,0.0,True,True,0.1685415379068317,La: 0.0625; Mg: 0.8750; Sn: 0.0625
mp-1220549,NbAlFe,"Al, Fe, Nb",3,0.04849073740000076,Orthorhombic,38,Amm2,0.0,True,True,0.10614455552060437,Nb: 0.3333; Al: 0.3333; Fe: 0.3333
mp-1028203,CaMg14Ni,"Ca, Mg, Ni",3,0.09860745989583353,Orthorhombic,38,Amm2,0.0,True,True,0.16786224821263412,Ca: 0.0625; Mg: 0.8750; Ni: 0.0625
mp-1220522,NbVCo,"Co, Nb, V",3,0.010004840925928349,Orthorhombic,38,Amm2,0.0,True,True,0.12552113589175148,Nb: 0.3333; V: 0.3333; Co: 0.3333
mp-1222500,Li3Sn11Pd4,"Li, Pd, Sn",3,0.0016695981746011057,Orthorhombic,38,Amm2,0.0,True,True,0.4009571880720767,Li: 0.1667; Sn: 0.6111; Pd: 0.2222
mp-1021401,Mg6GaSn,"Ga, Mg, Sn",3,0.07766827937499965,Orthorhombic,38,Amm2,0.0,True,True,0.25179046348104606,Mg: 0.7500; Ga: 0.1250; Sn: 0.1250
mp-1215321,ZrMnFe,"Fe, Mn, Zr",3,0.0430294758333396,Orthorhombic,38,Amm2,0.0,True,True,0.2046134567096374,Zr: 0.3333; Mn: 0.3333; Fe: 0.3333
mp-1028093,YMg14Zn,"Mg, Y, Zn",3,0.06706027489583355,Orthorhombic,38,Amm2,0.0,True,True,0.08652808431370704,Y: 0.0625; Mg: 0.8750; Zn: 0.0625
mp-1215261,ZrVFe,"Fe, V, Zr",3,0.0,Orthorhombic,38,Amm2,0.0,True,True,0.20548046676563253,Zr: 0.3333; V: 0.3333; Fe: 0.3333
mp-1021377,Mg6SnBi,"Bi, Mg, Sn",3,0.09738468906249897,Orthorhombic,38,Amm2,0.0,True,True,0.29483045975611133,Mg: 0.7500; Sn: 0.1250; Bi: 0.1250
mp-1224466,HfAlCr,"Al, Cr, Hf",3,0.027059349166666635,Orthorhombic,38,Amm2,0.0,True,True,0.15923427883328245,Hf: 0.3333; Al: 0.3333; Cr: 0.3333
mp-1223308,La2NiSn4,"La, Ni, Sn",3,0.009478329404773334,Orthorhombic,38,Amm2,0.0,True,True,0.38436271135159683,La: 0.2857; Ni: 0.1429; Sn: 0.5714
mp-1026398,Mg14TiBi,"Bi, Mg, Ti",3,0.07575326901041635,Orthorhombic,38,Amm2,0.0,True,True,0.177090195945456,Mg: 0.8750; Ti: 0.0625; Bi: 0.0625
mp-1028042,NaYMg14,"Mg, Na, Y",3,0.08154224960129319,Orthorhombic,38,Amm2,0.0,True,True,0.09310402448337021,Na: 0.0625; Y: 0.0625; Mg: 0.8750
mp-1222023,MgGaCu,"Cu, Ga, Mg",3,0.0,Orthorhombic,38,Amm2,0.0,True,True,0.259529488797623,Mg: 0.3333; Ga: 0.3333; Cu: 0.3333
mp-1023154,CaMg6Cd,"Ca, Cd, Mg",3,0.07958248312500027,Orthorhombic,38,Amm2,0.0,True,True,0.1731644810577504,Ca: 0.1250; Mg: 0.7500; Cd: 0.1250
mp-1023319,CaYMg6,"Ca, Mg, Y",3,0.026657794999999318,Orthorhombic,38,Amm2,0.0,True,True,0.10259142264341597,Ca: 0.1250; Y: 0.1250; Mg: 0.7500
mp-1023268,Mg6AlBi,"Al, Bi, Mg",3,0.08836576994791612,Orthorhombic,38,Amm2,0.0,True,True,0.24150245857961775,Mg: 0.7500; Al: 0.1250; Bi: 0.1250
mp-1022086,Mg6GaCu,"Cu, Ga, Mg",3,0.0968748409375002,Orthorhombic,38,Amm2,0.0,True,True,0.2370620962954643,Mg: 0.7500; Ga: 0.1250; Cu: 0.1250
mp-1215324,ZrVCo,"Co, V, Zr",3,0.026944136333334257,Orthorhombic,38,Amm2,0.0,True,True,0.2248456260538673,Zr: 0.3333; V: 0.3333; Co: 0.3333
mp-1028388,Mg14NiSn,"Mg, Ni, Sn",3,0.07664458020833331,Orthorhombic,38,Amm2,0.0,True,True,0.2068882171004429,Mg: 0.8750; Ni: 0.0625; Sn: 0.0625
mp-1223634,La2(GaNi)5,"Ga, La, Ni",3,0.05886867541666252,Orthorhombic,38,Amm2,0.0,True,True,0.38164119274522756,La: 0.5000; Ga: 0.2500; Ni: 0.2500
mp-1017095,Mg6GaBi,"Bi, Ga, Mg",3,0.08420552843749896,Orthorhombic,38,Amm2,0.0,True,True,0.26718146923018443,Mg: 0.7500; Ga: 0.1250; Bi: 0.1250
mp-1026803,LiMg14Cd,"Cd, Li, Mg",3,0.03788271500000007,Orthorhombic,38,Amm2,0.0,True,True,0.12578348212305143,Li: 0.0625; Mg: 0.8750; Cd: 0.0625
mp-1215246,ZrTiRh,"Rh, Ti, Zr",3,0.058740679999999657,Orthorhombic,38,Amm2,0.0,True,True,0.4074582459862877,Zr: 0.3333; Ti: 0.3333; Rh: 0.3333
mp-1028234,Mg14AlSn,"Al, Mg, Sn",3,0.055108861067708625,Orthorhombic,38,Amm2,0.0,True,True,0.16883678324050122,Mg: 0.8750; Al: 0.0625; Sn: 0.0625
mp-1026697,NaMg14Ga,"Ga, Mg, Na",3,0.05301746522629336,Orthorhombic,38,Amm2,0.0,True,True,0.15682394587562196,Na: 0.0625; Mg: 0.8750; Ga: 0.0625
mp-1227127,CaMgCd,"Ca, Cd, Mg",3,0.007120065833333911,Orthorhombic,38,Amm2,0.0,True,True,0.28217409913424407,Ca: 0.3333; Mg: 0.3333; Cd: 0.3333
mp-1218096,TaAlCu,"Al, Cu, Ta",3,0.0,Orthorhombic,38,Amm2,0.0,True,True,0.16872067646458344,Ta: 0.3333; Al: 0.3333; Cu: 0.3333
mp-1215302,ZrAlPd,"Al, Pd, Zr",3,0.01167506618159031,Orthorhombic,38,Amm2,0.0,True,True,0.3626139667592644,Zr: 0.3333; Al: 0.3333; Pd: 0.3333
mp-1028237,NaMg14Al,"Al, Mg, Na",3,0.05642604223150194,Orthorhombic,38,Amm2,0.0,True,True,0.12093386622447824,Na: 0.0625; Mg: 0.8750; Al: 0.0625
mp-1022458,Mg6ZrCd,"Cd, Mg, Zr",3,0.07960767593749996,Orthorhombic,38,Amm2,0.0,True,True,0.12489995996796793,Mg: 0.7500; Zr: 0.1250; Cd: 0.1250
mp-1022616,Mg6ZnGa,"Ga, Mg, Zn",3,0.06723269245000041,Orthorhombic,38,Amm2,0.0,True,True,0.18621224449536072,Mg: 0.7500; Zn: 0.1250; Ga: 0.1250
mp-1217084,TiAlNi,"Al, Ni, Ti",3,0.06228255833333307,Orthorhombic,38,Amm2,0.0,True,True,0.1604853748961429,Ti: 0.3333; Al: 0.3333; Ni: 0.3333
mp-1022650,YMg6Cd,"Cd, Mg, Y",3,0.07323792625000003,Orthorhombic,38,Amm2,0.0,True,True,0.13322326185768008,Y: 0.1250; Mg: 0.7500; Cd: 0.1250
mp-1215600,Zr2CoNi,"Co, Ni, Zr",3,0.0,Orthorhombic,38,Amm2,0.0,True,True,0.2826990449223342,Zr: 0.5000; Co: 0.2500; Ni: 0.2500
mp-1220393,NbCrGa,"Cr, Ga, Nb",3,0.07175253369047496,Orthorhombic,38,Amm2,0.0,True,True,0.08831760866327847,Nb: 0.3333; Cr: 0.3333; Ga: 0.3333
mp-1026583,SrMg14Cd,"Cd, Mg, Sr",3,0.08478809562500023,Orthorhombic,38,Amm2,0.0,True,True,0.13085655314121641,Sr: 0.0625; Mg: 0.8750; Cd: 0.0625
mp-1028211,CaMg14Al,"Al, Ca, Mg",3,0.06559145796874999,Orthorhombic,38,Amm2,0.0,True,True,0.10784646204210875,Ca: 0.0625; Mg: 0.8750; Al: 0.0625
mp-1028350,Mg14CdNi,"Cd, Mg, Ni",3,0.07773467052083327,Orthorhombic,38,Amm2,0.0,True,True,0.16665364532466725,Mg: 0.8750; Cd: 0.0625; Ni: 0.0625
mp-1218022,TaCrCo,"Co, Cr, Ta",3,0.010836422666665513,Orthorhombic,38,Amm2,0.0,True,True,0.15577761927397224,Ta: 0.3333; Cr: 0.3333; Co: 0.3333
mp-1419473,CaIn4Ni,"Ca, In, Ni",3,0.04420587333333348,Orthorhombic,38,Amm2,0.0,True,True,0.304106158365061,Ca: 0.1667; In: 0.6667; Ni: 0.1667
mp-1026831,SrLiMg14,"Li, Mg, Sr",3,0.09105305374999983,Orthorhombic,38,Amm2,0.0,True,True,0.11422120807888526,Sr: 0.0625; Li: 0.0625; Mg: 0.8750
mp-1027942,Mg14ZrCu,"Cu, Mg, Zr",3,0.08242250570312493,Orthorhombic,38,Amm2,0.0,True,True,0.1425753638431268,Mg: 0.8750; Zr: 0.0625; Cu: 0.0625
mp-1027927,HfMg14Zn,"Hf, Mg, Zn",3,0.08738401898437465,Orthorhombic,38,Amm2,0.0,True,True,0.0824976325417887,Hf: 0.0625; Mg: 0.8750; Zn: 0.0625