material_id,formula,elements,num_elements,energy_above_hull,crystal_system,spacegroup_number,spacegroup_symbol,band_gap,theoretical,is_metal
mp-1186210,Nb2TcOs,"Nb, Os, Tc",3,0.0,Cubic,225,Fm-3m,0.0,True,True
mp-867223,LiGa2Ni,"Ga, Li, Ni",3,0.004709949071427744,Cubic,225,Fm-3m,0.0,True,True
mp-865049,HfMgPd2,"Hf, Mg, Pd",3,0.0,Cubic,225,Fm-3m,0.0,True,True
mp-861645,Ca2MgTl,"Ca, Mg, Tl",3,0.0,Cubic,225,Fm-3m,0.0,True,True
mp-1185964,MgSc2Hg,"Hg, Mg, Sc",3,0.0,Cubic,225,Fm-3m,0.0,True,True
mp-1186004,MnGaPd2,"Ga, Mn, Pd",3,0.016125591142243323,Cubic,225,Fm-3m,0.0,True,True
mp-1187208,Ta2ReW,"Re, Ta, W",3,0.0,Cubic,225,Fm-3m,0.0,True,True
mp-862324,Sc2GaTc,"Ga, Sc, Tc",3,0.03582183000000061,Cubic,225,Fm-3m,0.0,True,True
mp-865678,TiMn2V,"Mn, Ti, V",3,0.0,Cubic,225,Fm-3m,0.0,True,True
mp-1187245,TiMo2W,"Mo, Ti, W",3,0.0,Cubic,225,Fm-3m,0.0,True,True
mp-1184299,Ga2NiRu,"Ga, Ni, Ru",3,0.03167111591346128,Cubic,225,Fm-3m,0.0,True,True
mp-1184609,Hf2CuTc,"Cu, Hf, Tc",3,0.0,Cubic,225,Fm-3m,0.0,True,True
mp-977401,NbGaRu2,"Ga, Nb, Ru",3,0.0,Cubic,225,Fm-3m,0.0,True,True
mp-31339,ScInPd2,"In, Pd, Sc",3,0.0,Cubic,225,Fm-3m,0.0,False,True
mp-1185366,LiMg2In,"In, Li, Mg",3,0.01800920791666627,Cubic,225,Fm-3m,0.0,True,True
mp-1185976,MnAl2Tc,"Al, Mn, Tc",3,0.019719858214288344,Cubic,225,Fm-3m,0.0,True,True
mp-10891,MnAlPd2,"Al, Mn, Pd",3,0.030336939267240126,Cubic,225,Fm-3m,0.0,False,True
mp-867115,LiCd2Rh,"Cd, Li, Rh",3,0.0,Cubic,225,Fm-3m,0.0,True,True
mp-20481,MnSnPd2,"Mn, Pd, Sn",3,0.0,Cubic,225,Fm-3m,0.0,False,True
mp-1183318,BaNaTl2,"Ba, Na, Tl",3,0.0315856596551769,Cubic,225,Fm-3m,0.0,True,True
mp-1212455,Hf6Be15Cu8,"Be, Cu, Hf",3,0.0,Cubic,225,Fm-3m,0.0,True,True
mp-30439,Ta6Be15Cu8,"Be, Cu, Ta",3,0.0,Cubic,225,Fm-3m,0.0,False,True
mp-20363,LiGa2Pt,"Ga, Li, Pt",3,0.0,Cubic,225,Fm-3m,0.0,False,True
mp-865929,Cd2PtRh,"Cd, Pt, Rh",3,0.0,Cubic,225,Fm-3m,0.0,True,True
mp-862730,LiGaRh2,"Ga, Li, Rh",3,0.0,Cubic,225,Fm-3m,0.0,True,True
mp-867243,Sc2ZnOs,"Os, Sc, Zn",3,0.0,Cubic,225,Fm-3m,0.0,True,True
mp-1185102,La2ZnHg,"Hg, La, Zn",3,0.007778297499999809,Cubic,225,Fm-3m,0.0,True,True
mp-862372,Sc2RuRh,"Rh, Ru, Sc",3,0.0,Cubic,225,Fm-3m,0.0,True,True
mp-867149,Sr2CdSn,"Cd, Sn, Sr",3,0.0,Cubic,225,Fm-3m,0.0,True,True
mp-867207,Sr2HgPb,"Hg, Pb, Sr",3,0.0,Cubic,225,Fm-3m,0.12049999999999983,True,False
mp-1187087,Sr2LiCd,"Cd, Li, Sr",3,0.0064028780555558384,Cubic,225,Fm-3m,0.0,True,True
mp-864922,MgZnAu2,"Au, Mg, Zn",3,0.0,Cubic,225,Fm-3m,0.0,True,True
mp-1192877,Ti6Al16Co7,"Al, Co, Ti",3,0.008310763879311622,Cubic,225,Fm-3m,0.0,False,True
mp-972914,Sc2AlCd,"Al, Cd, Sc",3,0.007978842500001804,Cubic,225,Fm-3m,0.0,True,True
mp-864955,Mn2CrCo,"Co, Cr, Mn",3,0.0,Cubic,225,Fm-3m,0.0,True,True
mp-973142,ScZn2Pd,"Pd, Sc, Zn",3,0.028104677261904243,Cubic,225,Fm-3m,0.0,True,True
mp-862781,AlCrRu2,"Al, Cr, Ru",3,0.0,Cubic,225,Fm-3m,0.0,True,True
mp-867193,Sr2BiAu,"Au, Bi, Sr",3,0.0,Cubic,225,Fm-3m,0.39360000000000017,True,False
mp-865441,TiAlPd2,"Al, Pd, Ti",3,0.0,Cubic,225,Fm-3m,0.0,True,True
mp-1194195,Zr6Ga16Ir7,"Ga, Ir, Zr",3,0.0,Cubic,225,Fm-3m,0.0,False,True
mp-865127,NaTl2Cd,"Cd, Na, Tl",3,0.0,Cubic,225,Fm-3m,0.0,True,True
mp-864618,BaHg2Pb,"Ba, Hg, Pb",3,0.0,Cubic,225,Fm-3m,0.0,True,True
mp-865879,Li2AgAu,"Ag, Au, Li",3,0.0,Cubic,225,Fm-3m,0.0,True,True
mp-19963,TiFe2Sn,"Fe, Sn, Ti",3,0.0,Cubic,225,Fm-3m,0.04870000000000019,False,False
mp-867242,Sc2ZnGa,"Ga, Sc, Zn",3,0.0,Cubic,225,Fm-3m,0.0,True,True
mp-22712,YPd2Pb,"Pb, Pd, Y",3,0.017725973000001005,Cubic,225,Fm-3m,0.0,False,True
mp-862602,ScAlCo2,"Al, Co, Sc",3,0.0,Cubic,225,Fm-3m,0.0,True,True
mp-984352,Al2CoOs,"Al, Co, Os",3,0.0,Cubic,225,Fm-3m,0.0,True,True
mp-11305,Li2CdPb,"Cd, Li, Pb",3,0.0,Cubic,225,Fm-3m,0.0,False,True
mp-866096,HfZnCo2,"Co, Hf, Zn",3,0.0009406215441174481,Cubic,225,Fm-3m,0.0,True,True
mp-867872,LiCdAg2,"Ag, Cd, Li",3,0.01247786624999847,Cubic,225,Fm-3m,0.0,True,True
mp-866160,Y2AgIr,"Ag, Ir, Y",3,0.01625410546875017,Cubic,225,Fm-3m,0.0,True,True
mp-980947,SrCaHg2,"Ca, Hg, Sr",3,0.018665545000002837,Cubic,225,Fm-3m,0.0,True,True
mp-623134,ZrInCu2,"Cu, In, Zr",3,0.0,Cubic,225,Fm-3m,0.0,False,True
mp-973088,MgInAg2,"Ag, In, Mg",3,0.0,Cubic,225,Fm-3m,0.0,False,True
mp-972869,Sc2GaPt,"Ga, Pt, Sc",3,0.005126592500000804,Cubic,225,Fm-3m,0.0,True,True
mp-980749,VFeRu2,"Fe, Ru, V",3,0.014310354166662265,Cubic,225,Fm-3m,0.0,True,True
mp-865935,Li2MgSn,"Li, Mg, Sn",3,0.03690549249999897,Cubic,225,Fm-3m,0.0,True,True
mp-1184972,Li2InBi,"Bi, In, Li",3,0.005973699305555247,Cubic,225,Fm-3m,0.00039999999999995595,True,False
mp-867846,TaTiRe2,"Re, Ta, Ti",3,0.0,Cubic,225,Fm-3m,0.0,True,True
mp-1186208,Nb2ReTc,"Nb, Re, Tc",3,0.0,Cubic,225,Fm-3m,0.0,True,True
mp-1100781,ZrZnNi2,"Ni, Zn, Zr",3,0.009448021250000771,Cubic,225,Fm-3m,0.0,True,True
mp-865501,V2TcRu,"Ru, Tc, V",3,0.0,Cubic,225,Fm-3m,0.0,True,True
mp-1186940,Sc2CoCu,"Co, Cu, Sc",3,0.022116357499998074,Cubic,225,Fm-3m,0.0,True,True
mp-1185546,CsRb2Bi,"Bi, Cs, Rb",3,0.001246811666665737,Cubic,225,Fm-3m,0.18720000000000003,True,False
mp-867245,LaAgHg2,"Ag, Hg, La",3,0.0,Cubic,225,Fm-3m,0.0,True,True
mp-1183464,Ca2ZnHg,"Ca, Hg, Zn",3,0.013920215000001956,Cubic,225,Fm-3m,0.0,True,True
mp-30648,LiMg2Ga,"Ga, Li, Mg",3,0.005975480750000539,Cubic,225,Fm-3m,0.0,False,True
mp-977399,LiMgPd2,"Li, Mg, Pd",3,0.0,Cubic,225,Fm-3m,0.0,True,True
mp-1187427,Ti2FeOs,"Fe, Os, Ti",3,0.0,Cubic,225,Fm-3m,0.0,True,True
mp-1186939,Sc2CoPt,"Co, Pt, Sc",3,0.005489926250000998,Cubic,225,Fm-3m,0.0,True,True
mp-21883,VGaFe2,"Fe, Ga, V",3,0.0,Cubic,225,Fm-3m,0.0,False,True
mp-867216,TaFeRu2,"Fe, Ru, Ta",3,0.0,Cubic,225,Fm-3m,0.0,True,True
mp-972183,ZrGaPd2,"Ga, Pd, Zr",3,0.02197881965277304,Cubic,225,Fm-3m,0.0,True,True
mp-1184870,InAgAu2,"Ag, Au, In",3,0.02134589718748714,Cubic,225,Fm-3m,0.0,True,True
mp-1187424,Ti2OsRh,"Os, Rh, Ti",3,0.015226427499998252,Cubic,225,Fm-3m,0.0,True,True
mp-867771,TaCuRh2,"Cu, Rh, Ta",3,0.0,Cubic,225,Fm-3m,0.0,True,True
mp-30661,ScGaPd2,"Ga, Pd, Sc",3,0.0,Cubic,225,Fm-3m,0.0,False,True
mp-1183537,Cd2AgPt,"Ag, Cd, Pt",3,0.0,Cubic,225,Fm-3m,0.0,True,True
mp-861896,LiHg2Pd,"Hg, Li, Pd",3,0.0,Cubic,225,Fm-3m,0.0,True,True
mp-10895,Mn2AlV,"Al, Mn, V",3,0.0,Cubic,225,Fm-3m,0.0,False,True
mp-1193188,Hf6Ga16Co7,"Co, Ga, Hf",3,0.06468239528735609,Cubic,225,Fm-3m,0.0,False,True
mp-1187809,YAlAu2,"Al, Au, Y",3,0.03169731520833352,Cubic,225,Fm-3m,0.0,True,True
mp-1184611,Hf2NiIr,"Hf, Ir, Ni",3,0.020964980000000466,Cubic,225,Fm-3m,0.0,True,True
mp-862815,LiScAu2,"Au, Li, Sc",3,0.0,Cubic,225,Fm-3m,0.0,True,True
mp-1187210,Ta2TcOs,"Os, Ta, Tc",3,0.0,Cubic,225,Fm-3m,0.0,True,True
mp-865780,TiMn2Ga,"Ga, Mn, Ti",3,0.03382918218749964,Cubic,225,Fm-3m,0.0,True,True
mp-11490,Li2ZnSn,"Li, Sn, Zn",3,0.04711050750000023,Cubic,225,Fm-3m,0.0,False,True
mp-865519,YTaRu2,"Ru, Ta, Y",3,0.0,Cubic,225,Fm-3m,0.0,True,True
mp-10883,AlCrCo2,"Al, Co, Cr",3,0.05759880625000058,Cubic,225,Fm-3m,0.0,False,True
mp-1188022,ZrMnRh2,"Mn, Rh, Zr",3,0.0,Cubic,225,Fm-3m,0.0,True,True
mp-1185980,MgSnRu2,"Mg, Ru, Sn",3,0.004328620029761865,Cubic,225,Fm-3m,0.0,True,True
mp-867850,ScMnRh2,"Mn, Rh, Sc",3,0.0,Cubic,225,Fm-3m,0.0,True,True
mp-862774,LiInPt2,"In, Li, Pt",3,0.0,Cubic,225,Fm-3m,0.0,True,True
mp-866082,MgSc2Tc,"Mg, Sc, Tc",3,0.017487309062500955,Cubic,225,Fm-3m,0.0,True,True
mp-13915,LiNi2Sn,"Li, Ni, Sn",3,0.0,Cubic,225,Fm-3m,0.0,False,True
mp-1207415,Zr6Be15Co8,"Be, Co, Zr",3,0.0,Cubic,225,Fm-3m,0.0,True,True
mp-972961,Sc2NiRh,"Ni, Rh, Sc",3,0.02037354749999931,Cubic,225,Fm-3m,0.0,True,True
mp-1183038,ZrZnIr2,"Ir, Zn, Zr",3,0.0,Cubic,225,Fm-3m,0.0,True,True
mp-861627,Ti2AlMo,"Al, Mo, Ti",3,0.0,Cubic,225,Fm-3m,0.0,True,True
mp-1187876,YRh2Pb,"Pb, Rh, Y",3,0.008212606250001642,Cubic,225,Fm-3m,0.0,True,True
mp-979435,YMg2Sc,"Mg, Sc, Y",3,0.009669714375000638,Cubic,225,Fm-3m,0.0,True,True
mp-1193281,Sc6Ga16Ir7,"Ga, Ir, Sc",3,0.0,Cubic,225,Fm-3m,0.0,False,True
mp-1184999,LaMgAu2,"Au, La, Mg",3,0.0,Cubic,225,Fm-3m,0.0,True,True
mp-5778,AlVFe2,"Al, Fe, V",3,0.0,Cubic,225,Fm-3m,0.0,False,True
mp-1185430,LiZnCu2,"Cu, Li, Zn",3,0.010973245000002407,Cubic,225,Fm-3m,0.0,True,True
mp-1188017,ZrScTc2,"Sc, Tc, Zr",3,0.015365562291668411,Cubic,225,Fm-3m,0.0,True,True
mp-865471,VGaTc2,"Ga, Tc, V",3,0.0,Cubic,225,Fm-3m,0.0,True,True
mp-1185986,MnBeIr2,"Be, Ir, Mn",3,0.0,Cubic,225,Fm-3m,0.0,True,True
mp-865730,TiZnAu2,"Au, Ti, Zn",3,0.0,Cubic,225,Fm-3m,0.0,True,True
mp-1187800,Zn2CuRh,"Cu, Rh, Zn",3,0.0,Cubic,225,Fm-3m,0.0,True,True
mp-1183421,Be2NiRu,"Be, Ni, Ru",3,0.004523848750000781,Cubic,225,Fm-3m,0.0,True,True
mp-977586,MgSc2In,"In, Mg, Sc",3,0.0,Cubic,225,Fm-3m,0.0,True,True
mp-1186954,Sc2IrOs,"Ir, Os, Sc",3,0.0035059564236110674,Cubic,225,Fm-3m,0.0,True,True
mp-1185985,MnBe2Ru,"Be, Mn, Ru",3,0.023721130517240674,Cubic,225,Fm-3m,0.0,True,True
mp-972971,LaTlHg2,"Hg, La, Tl",3,0.0054820150000036705,Cubic,225,Fm-3m,0.0,True,True
mp-581707,ZrInAu2,"Au, In, Zr",3,0.02952319083333066,Cubic,225,Fm-3m,0.0,False,True
mp-867271,Be2CoNi,"Be, Co, Ni",3,0.0,Cubic,225,Fm-3m,0.0,True,True
mp-866153,TiAlRh2,"Al, Rh, Ti",3,0.0,Cubic,225,Fm-3m,0.0,True,True
mp-864983,MnVRu2,"Mn, Ru, V",3,0.0,Cubic,225,Fm-3m,0.0,True,True
mp-3498,HfGaNi2,"Ga, Hf, Ni",3,0.008806291032259495,Cubic,225,Fm-3m,0.0,False,True
mp-1187418,Ti2AlW,"Al, Ti, W",3,0.0,Cubic,225,Fm-3m,0.0,True,True
mp-861894,Li2LaSn,"La, Li, Sn",3,0.0,Cubic,225,Fm-3m,0.0,True,True
mp-867795,ScNbTc2,"Nb, Sc, Tc",3,0.0,Cubic,225,Fm-3m,0.0,True,True
mp-1187701,Y2AgHg,"Ag, Hg, Y",3,0.0,Cubic,225,Fm-3m,0.0,True,True
mp-1185367,LiInHg2,"Hg, In, Li",3,0.0,Cubic,225,Fm-3m,0.0,True,True
mp-1194178,Ti6Al16Pd7,"Al, Pd, Ti",3,0.020043311293104438,Cubic,225,Fm-3m,0.0,False,True
mp-865003,Be2IrPd,"Be, Ir, Pd",3,0.0,Cubic,225,Fm-3m,0.0,True,True
mp-865984,BaTlHg2,"Ba, Hg, Tl",3,0.0,Cubic,225,Fm-3m,0.0,True,True
mp-982667,LiAl2Os,"Al, Li, Os",3,0.02261172166666725,Cubic,225,Fm-3m,0.0,True,True
mp-865877,Ti2RePt,"Pt, Re, Ti",3,0.0691250500000038,Cubic,225,Fm-3m,0.0,True,True
mp-865280,NbAlFe2,"Al, Fe, Nb",3,0.0,Cubic,225,Fm-3m,0.32070000000000043,True,False
mp-866069,MgScRh2,"Mg, Rh, Sc",3,0.0,Cubic,225,Fm-3m,0.0,True,True
mp-1185244,LiY2Ga,"Ga, Li, Y",3,0.016442154322918512,Cubic,225,Fm-3m,0.0,True,True
mp-866173,Y2RuRh,"Rh, Ru, Y",3,0.0028095790624993455,Cubic,225,Fm-3m,0.0,True,True
mp-1186223,NbFeRu2,"Fe, Nb, Ru",3,0.032614899166667044,Cubic,225,Fm-3m,0.0,True,True
mp-1187459,TiGaCu2,"Cu, Ga, Ti",3,0.0,Cubic,225,Fm-3m,0.0,True,True
mp-1187091,Sr2TlZn,"Sr, Tl, Zn",3,0.013191636249999306,Cubic,225,Fm-3m,0.0,True,True
mp-1183312,BaNa2Pb,"Ba, Na, Pb",3,0.05256451806034468,Cubic,225,Fm-3m,0.0,True,True
mp-865866,LiZrPt2,"Li, Pt, Zr",3,0.010696489289770739,Cubic,225,Fm-3m,0.0,True,True
mp-865187,MgFeRh2,"Fe, Mg, Rh",3,0.0,Cubic,225,Fm-3m,0.0,True,True
mp-865529,Ti2NiIr,"Ir, Ni, Ti",3,0.0,Cubic,225,Fm-3m,0.0,True,True
mp-1188020,Zr2TcNi,"Ni, Tc, Zr",3,0.0,Cubic,225,Fm-3m,0.0,True,True
mp-974463,LaAg2Sn,"Ag, La, Sn",3,0.06078010813244017,Cubic,225,Fm-3m,0.0,True,True
mp-861903,LiBiRh2,"Bi, Li, Rh",3,0.0,Cubic,225,Fm-3m,0.0,True,True
mp-1187079,Sr2CdHg,"Cd, Hg, Sr",3,0.008867520000000795,Cubic,225,Fm-3m,0.0,True,True
mp-1185143,La2CdHg,"Cd, Hg, La",3,0.01215002250000019,Cubic,225,Fm-3m,0.0,True,True
mp-1183039,ZrTaTc2,"Ta, Tc, Zr",3,0.0,Cubic,225,Fm-3m,0.0,True,True
mp-862364,Sc2OsPt,"Os, Pt, Sc",3,0.0,Cubic,225,Fm-3m,0.0,True,True
mp-977550,ZrScOs2,"Os, Sc, Zr",3,0.0,Cubic,225,Fm-3m,0.0,True,True
mp-865170,GaFeRh2,"Fe, Ga, Rh",3,0.0,Cubic,225,Fm-3m,0.0,True,True
mp-864654,Zn2NiRh,"Ni, Rh, Zn",3,0.0,Cubic,225,Fm-3m,0.0,True,True
mp-864631,LiNbRh2,"Li, Nb, Rh",3,0.0,Cubic,225,Fm-3m,0.0,True,True
mp-867144,CaMgHg2,"Ca, Hg, Mg",3,0.0,Cubic,225,Fm-3m,0.0,True,True
mp-983602,CdAg2Au,"Ag, Au, Cd",3,0.018263051250006157,Cubic,225,Fm-3m,0.0,True,True
mp-4771,TiAlCu2,"Al, Cu, Ti",3,0.0,Cubic,225,Fm-3m,0.0,False,True
mp-865916,TiVRe2,"Re, Ti, V",3,0.0,Cubic,225,Fm-3m,0.0,True,True
mp-1184678,Hf2FeRh,"Fe, Hf, Rh",3,0.0,Cubic,225,Fm-3m,0.0,True,True
mp-972337,Ti2IrW,"Ir, Ti, W",3,0.0,Cubic,225,Fm-3m,0.0,True,True
mp-865000,HfScIr2,"Hf, Ir, Sc",3,0.00880948500000045,Cubic,225,Fm-3m,0.0,True,True
mp-867909,ScCdRh2,"Cd, Rh, Sc",3,0.0,Cubic,225,Fm-3m,0.0,True,True
mp-31169,ScAlAg2,"Ag, Al, Sc",3,0.0,Cubic,225,Fm-3m,0.0,False,True
mp-864951,MnAlOs2,"Al, Mn, Os",3,0.0,Cubic,225,Fm-3m,0.0,True,True
mp-977110,NaSnPd2,"Na, Pd, Sn",3,0.0,Cubic,225,Fm-3m,0.0,True,True
mp-1187212,Ta2ReTc,"Re, Ta, Tc",3,0.0,Cubic,225,Fm-3m,0.0,True,True
mp-865538,Ti2RePd,"Pd, Re, Ti",3,0.0,Cubic,225,Fm-3m,0.0,True,True
mp-982870,HfAlIr2,"Al, Hf, Ir",3,0.027841117499999513,Cubic,225,Fm-3m,0.0,True,True
mp-866094,HfZnCu2,"Cu, Hf, Zn",3,0.0,Cubic,225,Fm-3m,0.0,True,True
mp-862363,Sc2PdPt,"Pd, Pt, Sc",3,0.0,Cubic,225,Fm-3m,0.0,True,True
mp-864947,ZrSnRh2,"Rh, Sn, Zr",3,0.0,Cubic,225,Fm-3m,0.0,True,True
mp-1185050,La2TlAg,"Ag, La, Tl",3,0.0,Cubic,225,Fm-3m,0.0,True,True
mp-983123,HfMgAu2,"Au, Hf, Mg",3,0.0,Cubic,225,Fm-3m,0.0,True,True
mp-1186187,NaTl2Sn,"Na, Sn, Tl",3,0.03220633739583434,Cubic,225,Fm-3m,0.0,True,True
mp-1187006,ScZn2Cu,"Cu, Sc, Zn",3,0.019352509375000437,Cubic,225,Fm-3m,0.0,True,True
mp-973572,La2TlHg,"Hg, La, Tl",3,0.0013906024999954525,Cubic,225,Fm-3m,0.0,True,True
mp-1187096,Sr2ZnHg,"Hg, Sr, Zn",3,0.013512228125000192,Cubic,225,Fm-3m,0.0,True,True
mp-867249,TaAlFe2,"Al, Fe, Ta",3,0.0,Cubic,225,Fm-3m,0.32420000000000027,True,False
mp-974634,LiAg2Pd,"Ag, Li, Pd",3,0.014468547499998152,Cubic,225,Fm-3m,0.0,True,True
mp-867304,BeVFe2,"Be, Fe, V",3,0.0,Cubic,225,Fm-3m,0.0,True,True
mp-1186766,Ta2MoIr,"Ir, Mo, Ta",3,0.0,Cubic,225,Fm-3m,0.0,True,True
mp-1183708,CrSnRh2,"Cr, Rh, Sn",3,0.017585407499998595,Cubic,225,Fm-3m,0.0,True,True
mp-571310,ZrInPt2,"In, Pt, Zr",3,0.046393768068178076,Cubic,225,Fm-3m,0.0,False,True
mp-1185768,Mg2IrPt,"Ir, Mg, Pt",3,0.0,Cubic,225,Fm-3m,0.0,True,True
mp-1185241,LiY2Tl,"Li, Tl, Y",3,0.017815321874998347,Cubic,225,Fm-3m,0.0,True,True
mp-1185376,LiLaTl2,"La, Li, Tl",3,0.0,Cubic,225,Fm-3m,0.0,True,True
mp-865654,Y2TlAg,"Ag, Tl, Y",3,0.0,Cubic,225,Fm-3m,0.0,True,True
mp-1183598,Ca2InHg,"Ca, Hg, In",3,0.002421209375000899,Cubic,225,Fm-3m,0.0,True,True
mp-867170,LiGaPt2,"Ga, Li, Pt",3,0.0,Cubic,225,Fm-3m,0.0,True,True
mp-866176,Li2PdAu,"Au, Li, Pd",3,0.0,Cubic,225,Fm-3m,0.0,True,True
mp-1185193,La2CdIn,"Cd, In, La",3,0.0,Cubic,225,Fm-3m,0.0,True,True
mp-1187188,SrLaPt2,"La, Pt, Sr",3,0.04875910093750235,Cubic,225,Fm-3m,0.0,True,True
mp-972275,Ti2ReRu,"Re, Ru, Ti",3,0.008236759999999066,Cubic,225,Fm-3m,0.0,True,True
mp-862962,CaLaZn2,"Ca, La, Zn",3,0.0,Cubic,225,Fm-3m,0.0,True,True
mp-977563,LiNbIr2,"Ir, Li, Nb",3,0.0,Cubic,225,Fm-3m,0.0,True,True
mp-977427,Zn2PtRh,"Pt, Rh, Zn",3,0.0,Cubic,225,Fm-3m,0.0,True,True
mp-1185992,MnCuPt2,"Cu, Mn, Pt",3,0.019051700833335516,Cubic,225,Fm-3m,0.0,True,True
mp-867211,LiCa2In,"Ca, In, Li",3,0.0,Cubic,225,Fm-3m,0.0,True,True
mp-4955,AlVCo2,"Al, Co, V",3,0.0,Cubic,225,Fm-3m,0.0,False,True
mp-866194,Li2MgCd,"Cd, Li, Mg",3,0.013729252500000122,Cubic,225,Fm-3m,0.0,True,True
mp-865531,TiMn2Al,"Al, Mn, Ti",3,0.0,Cubic,225,Fm-3m,0.0,True,True
mp-861725,LiTl2Rh,"Li, Rh, Tl",3,0.0,Cubic,225,Fm-3m,0.0,True,True
mp-865804,TaZnRh2,"Rh, Ta, Zn",3,0.0,Cubic,225,Fm-3m,0.0,True,True
mp-971836,Zn2NiIr,"Ir, Ni, Zn",3,0.007683492500000888,Cubic,225,Fm-3m,0.0,True,True
mp-865485,V2CrOs,"Cr, Os, V",3,0.0,Cubic,225,Fm-3m,0.0,True,True
mp-867805,LiCa2Ga,"Ca, Ga, Li",3,0.0009458095833325686,Cubic,225,Fm-3m,0.0,True,True
mp-1194002,Zr6Ga16Pt7,"Ga, Pt, Zr",3,0.05031122850574654,Cubic,225,Fm-3m,0.0,False,True
mp-867874,BeVRu2,"Be, Ru, V",3,0.0,Cubic,225,Fm-3m,0.0,True,True
mp-862691,Al2FeCo,"Al, Co, Fe",3,0.0,Cubic,225,Fm-3m,0.0,True,True
mp-864975,Mg2PdPt,"Mg, Pd, Pt",3,0.0,Cubic,225,Fm-3m,0.0,True,True
mp-865840,Ti2TcIr,"Ir, Tc, Ti",3,0.0,Cubic,225,Fm-3m,0.0,True,True
mp-1186119,NaCdPd2,"Cd, Na, Pd",3,0.0017531259051732917,Cubic,225,Fm-3m,0.0,True,True
mp-1186933,Sc2CdGa,"Cd, Ga, Sc",3,0.026029921249998367,Cubic,225,Fm-3m,0.0,True,True
mp-972209,Ta2TcW,"Ta, Tc, W",3,0.005131650000009813,Cubic,225,Fm-3m,0.0,True,True
mp-1187429,Ti2FeCo,"Co, Fe, Ti",3,0.004524152500000156,Cubic,225,Fm-3m,0.0,True,True
mp-3648,Zn2CuAu,"Au, Cu, Zn",3,0.011148087500000514,Cubic,225,Fm-3m,0.0,False,True
mp-971737,V2OsRu,"Os, Ru, V",3,0.0,Cubic,225,Fm-3m,0.0,True,True
mp-864768,LiSnIr2,"Ir, Li, Sn",3,0.002993191136360096,Cubic,225,Fm-3m,0.0,True,True
mp-861616,LiSc2Ir,"Ir, Li, Sc",3,0.0,Cubic,225,Fm-3m,0.0,True,True
mp-1185195,La2InAg,"Ag, In, La",3,0.0024306099999993336,Cubic,225,Fm-3m,0.0,True,True
mp-862432,Sc2AgIr,"Ag, Ir, Sc",3,0.009654504910713513,Cubic,225,Fm-3m,0.0,True,True
mp-1184229,Ga2CoIr,"Co, Ga, Ir",3,0.035522045000000446,Cubic,225,Fm-3m,0.0,True,True
mp-866183,Ti2ZnRe,"Re, Ti, Zn",3,0.0,Cubic,225,Fm-3m,0.0,True,True
mp-862548,Sc2AlZn,"Al, Sc, Zn",3,0.0,Cubic,225,Fm-3m,0.0,True,True
mp-22731,MnInNi2,"In, Mn, Ni",3,0.03854070617816063,Cubic,225,Fm-3m,0.0,False,True
mp-864972,Mg2PdAu,"Au, Mg, Pd",3,0.0004032624999981138,Cubic,225,Fm-3m,0.0,True,True
mp-972327,Zr2CoOs,"Co, Os, Zr",3,0.0,Cubic,225,Fm-3m,0.0,True,True
mp-1194154,Sc6Al16Rh7,"Al, Rh, Sc",3,0.0,Cubic,225,Fm-3m,0.0,False,True
mp-30817,LiAl2Pd,"Al, Li, Pd",3,0.0,Cubic,225,Fm-3m,0.0,False,True
mp-1187723,Y2CuAu,"Au, Cu, Y",3,0.025544960000000394,Cubic,225,Fm-3m,0.0,True,True
mp-981539,Hf2IrPd,"Hf, Ir, Pd",3,0.02405564756944578,Cubic,225,Fm-3m,0.0,True,True
mp-1187470,TiCrTc2,"Cr, Tc, Ti",3,0.03737960249999972,Cubic,225,Fm-3m,0.0,True,True
mp-1183697,CdRh2Pb,"Cd, Pb, Rh",3,0.0,Cubic,225,Fm-3m,0.0,True,True
mp-862715,Al2PdRu,"Al, Pd, Ru",3,0.0,Cubic,225,Fm-3m,0.0,True,True
mp-4828,HfNi2Sn,"Hf, Ni, Sn",3,0.04730787291071081,Cubic,225,Fm-3m,0.0,False,True
mp-865432,Y2NiIr,"Ir, Ni, Y",3,0.026191693466797616,Cubic,225,Fm-3m,0.0,True,True
mp-867926,LiInPd2,"In, Li, Pd",3,0.0,Cubic,225,Fm-3m,0.0,True,True
mp-864839,Zn2PdRh,"Pd, Rh, Zn",3,0.0,Cubic,225,Fm-3m,0.0,True,True
mp-867270,Be2CoPt,"Be, Co, Pt",3,0.0,Cubic,225,Fm-3m,0.0,True,True
mp-865561,Y2AgRu,"Ag, Ru, Y",3,0.0,Cubic,225,Fm-3m,0.0,True,True
mp-1187423,Ti2BeTc,"Be, Tc, Ti",3,0.0154324764583329,Cubic,225,Fm-3m,0.0,True,True
mp-865179,Hf2FeOs,"Fe, Hf, Os",3,0.0,Cubic,225,Fm-3m,0.0,True,True
mp-574025,HfInAu2,"Au, Hf, In",3,0.045808078593751134,Cubic,225,Fm-3m,0.0,False,True
mp-865712,Ti2MnNi,"Mn, Ni, Ti",3,0.0,Cubic,225,Fm-3m,0.0,True,True
mp-1183456,Ca2AgPd,"Ag, Ca, Pd",3,0.033896488020833004,Cubic,225,Fm-3m,0.0,True,True
mp-1184567,Hf2TcIr,"Hf, Ir, Tc",3,0.0,Cubic,225,Fm-3m,0.0,True,True
mp-20801,LiIn2Pd,"In, Li, Pd",3,0.0,Cubic,225,Fm-3m,0.0,False,True
mp-865914,TiVTc2,"Tc, Ti, V",3,0.0,Cubic,225,Fm-3m,0.0,True,True
mp-983358,HfAlFe2,"Al, Fe, Hf",3,0.010338156499999585,Cubic,225,Fm-3m,0.0,True,True
mp-867908,LaBiAu2,"Au, Bi, La",3,0.035571406565320096,Cubic,225,Fm-3m,0.0,True,True
mp-865110,NaMgTl2,"Mg, Na, Tl",3,0.0,Cubic,225,Fm-3m,0.0,True,True
mp-1185625,MgZrPt2,"Mg, Pt, Zr",3,0.0,Cubic,225,Fm-3m,0.0,True,True
mp-1183329,Ba2InHg,"Ba, Hg, In",3,0.009731376250000423,Cubic,225,Fm-3m,0.0,True,True
mp-971827,Zn2CuPt,"Cu, Pt, Zn",3,0.0038450894078936315,Cubic,225,Fm-3m,0.0,True,True
mp-862446,TaAlRu2,"Al, Ru, Ta",3,0.0,Cubic,225,Fm-3m,0.0,True,True
mp-864971,MnSnRu2,"Mn, Ru, Sn",3,0.0,Cubic,225,Fm-3m,0.0,True,True
mp-867160,LiCd2Au,"Au, Cd, Li",3,0.0,Cubic,225,Fm-3m,0.0,True,True
mp-866031,Al2FeIr,"Al, Fe, Ir",3,0.0,Cubic,225,Fm-3m,0.0,True,True
mp-865963,LiGaAg2,"Ag, Ga, Li",3,0.0,Cubic,225,Fm-3m,0.0,True,True
mp-865025,HfTaRe2,"Hf, Re, Ta",3,0.0,Cubic,225,Fm-3m,0.0,True,True
mp-865679,TiSnPd2,"Pd, Sn, Ti",3,0.013997537708327457,Cubic,225,Fm-3m,0.0,True,True
mp-865713,Li2TlBi,"Bi, Li, Tl",3,0.0,Cubic,225,Fm-3m,0.22930000000000028,True,False
mp-977113,MgPdAu2,"Au, Mg, Pd",3,0.0218674735000004,Cubic,225,Fm-3m,0.0,True,True
mp-862623,ScSnRh2,"Rh, Sc, Sn",3,0.0,Cubic,225,Fm-3m,0.0,True,True
mp-3909,ZrAlCo2,"Al, Co, Zr",3,0.0,Cubic,225,Fm-3m,0.0,False,True
mp-867327,Hf2TcRu,"Hf, Ru, Tc",3,0.0,Cubic,225,Fm-3m,0.0,True,True
mp-867210,LiCa2Hg,"Ca, Hg, Li",3,0.02021490678240756,Cubic,225,Fm-3m,0.0,True,True