material_id,formula,elements,num_elements,energy_above_hull,crystal_system,spacegroup_number,spacegroup_symbol,band_gap,theoretical,is_metal,electronegativity_difference,atomic_concentrations
mp-1211881,LaZnCo2,"Co, La, Zn",3,0.059559285353262936,Hexagonal,194,P6_3/mmc,0.0,True,True,0.31869852525545195,La: 0.2500; Zn: 0.2500; Co: 0.5000
mp-1080559,In(GaAu)2,"Au, Ga, In",3,0.0,Hexagonal,194,P6_3/mmc,0.0,False,True,0.351409858838492,In: 0.3333; Ga: 0.3333; Au: 0.3333
mp-1193093,LaNi5Sn,"La, Ni, Sn",3,0.0,Hexagonal,194,P6_3/mmc,0.0,False,True,0.2868762088143132,La: 0.1429; Ni: 0.7143; Sn: 0.1429
mp-1219434,Sc2Fe3Ru,"Fe, Ru, Sc",3,0.0016754983333324702,Hexagonal,194,P6_3/mmc,0.0,True,True,0.29567718883945043,Sc: 0.3333; Fe: 0.5000; Ru: 0.1667
mp-1102059,Zr2GaFe3,"Fe, Ga, Zr",3,0.0,Hexagonal,194,P6_3/mmc,0.0,False,True,0.23345235059857503,Zr: 0.3333; Ga: 0.1667; Fe: 0.5000
mp-1018755,LaTlZn,"La, Tl, Zn",3,0.02819640300000037,Hexagonal,194,P6_3/mmc,0.0,False,True,0.2524986248587416,La: 0.3333; Tl: 0.3333; Zn: 0.3333
mp-1188187,Li3(ZnSn2)2,"Li, Sn, Zn",3,0.0,Hexagonal,194,P6_3/mmc,0.0,False,True,0.4503486303841601,Li: 0.5000; Zn: 0.1667; Sn: 0.3333
mp-1207814,Y3(Al3Os)4,"Al, Os, Y",3,0.0,Hexagonal,194,P6_3/mmc,0.0,True,True,0.32870804613187793,Y: 0.4286; Al: 0.4286; Os: 0.1429
mp-1220766,Nb2FeCo3,"Co, Fe, Nb",3,0.0017787848333323808,Hexagonal,194,P6_3/mmc,0.0,True,True,0.1273337696327603,Nb: 0.3333; Fe: 0.1667; Co: 0.5000
mp-1193832,Zr9FeMo4,"Fe, Mo, Zr",3,0.0005971053571425244,Hexagonal,194,P6_3/mmc,0.0,False,True,0.37447923023520413,Zr: 0.6429; Fe: 0.0714; Mo: 0.2857
mp-1078547,YSnPt2,"Pt, Sn, Y",3,0.0,Hexagonal,194,P6_3/mmc,0.0,False,True,0.4329838334164452,Y: 0.2500; Sn: 0.2500; Pt: 0.5000
mp-1220700,Nb2Al3Ir,"Al, Ir, Nb",3,0.0,Hexagonal,194,P6_3/mmc,0.0,True,True,0.2214158982548453,Nb: 0.3333; Al: 0.5000; Ir: 0.1667
mp-31148,BaZnSn,"Ba, Sn, Zn",3,0.0,Hexagonal,194,P6_3/mmc,0.0,False,True,0.4495182606598609,Ba: 0.3333; Zn: 0.3333; Sn: 0.3333
mp-1018753,LaTlCd,"Cd, La, Tl",3,0.01807813479166498,Hexagonal,194,P6_3/mmc,0.0,False,True,0.2631856125753584,La: 0.3333; Tl: 0.3333; Cd: 0.3333
mp-1019280,SrZnPb,"Pb, Sr, Zn",3,0.017397941987177035,Hexagonal,194,P6_3/mmc,0.0,False,True,0.563402362634576,Sr: 0.3333; Zn: 0.3333; Pb: 0.3333
mp-570351,Na2Sn3Au,"Au, Na, Sn",3,0.0,Hexagonal,194,P6_3/mmc,0.0,False,True,0.5906399542492495,Na: 0.3333; Sn: 0.5000; Au: 0.1667
mp-1214565,Ba5(Sn3Bi2)3,"Ba, Bi, Sn",3,0.0008439112500022716,Hexagonal,194,P6_3/mmc,0.0,True,True,0.5473947387397873,Ba: 0.5000; Sn: 0.3000; Bi: 0.2000
mp-1220716,Nb2GaCo3,"Co, Ga, Nb",3,0.02351564755555824,Hexagonal,194,P6_3/mmc,0.0,True,True,0.12619429464123955,Nb: 0.3333; Ga: 0.1667; Co: 0.5000
mp-12947,LaMgCu2,"Cu, La, Mg",3,0.0,Hexagonal,194,P6_3/mmc,0.0,False,True,0.3553431440171597,La: 0.2500; Mg: 0.2500; Cu: 0.5000
mp-1193397,Zr9NiMo4,"Mo, Ni, Zr",3,0.0,Hexagonal,194,P6_3/mmc,0.0,False,True,0.3784905573998067,Zr: 0.6429; Ni: 0.0714; Mo: 0.2857
mp-1192476,CsGa9Au5,"Au, Cs, Ga",3,0.0,Hexagonal,194,P6_3/mmc,0.0,False,True,0.4650285534841442,Cs: 0.0667; Ga: 0.6000; Au: 0.3333
mp-1194426,Hf9NiMo4,"Hf, Mo, Ni",3,0.0,Hexagonal,194,P6_3/mmc,0.0,False,True,0.3926915235309533,Hf: 0.6429; Ni: 0.0714; Mo: 0.2857
mp-1192493,Hf9NiW4,"Hf, Ni, W",3,0.0,Hexagonal,194,P6_3/mmc,0.0,False,True,0.4770685357001675,Hf: 0.6429; Ni: 0.0714; W: 0.2857
mp-11977,LiSnAu,"Au, Li, Sn",3,0.0,Hexagonal,194,P6_3/mmc,0.0,False,True,0.6438081149604197,Li: 0.3333; Sn: 0.3333; Au: 0.3333
mp-1211984,La12Ni6Pb,"La, Ni, Pb",3,0.0,Cubic,204,Im-3,0.0,True,True,0.4290439026021821,La: 0.6316; Ni: 0.3158; Pb: 0.0526
mp-1212111,La12InCo6,"Co, In, La",3,0.0,Cubic,204,Im-3,0.0,True,True,0.36997267249535026,La: 0.6316; In: 0.0526; Co: 0.3158
mp-1211780,K6Na4Tl13,"K, Na, Tl",3,0.00032271527491256613,Cubic,204,Im-3,0.0,True,True,0.37645144438705036,K: 0.2609; Na: 0.1739; Tl: 0.5652
mp-1207989,Y12InNi6,"In, Ni, Y",3,0.0,Cubic,204,Im-3,0.0,True,True,0.3250561426044358,Y: 0.6316; In: 0.0526; Ni: 0.3158
mp-1211847,La12Co6Pb,"Co, La, Pb",3,0.0,Cubic,204,Im-3,0.0,True,True,0.41832868891191166,La: 0.6316; Co: 0.3158; Pb: 0.0526
mp-31506,Mg32Al36Ag13,"Ag, Al, Mg",3,0.020885457654320927,Cubic,204,Im-3,0.0,True,True,0.21789812189572,Mg: 0.3951; Al: 0.4444; Ag: 0.1605
mp-31194,Li13(Ga7Cu2)3,"Cu, Ga, Li",3,0.0,Cubic,204,Im-3,0.0,False,True,0.418600827630049,Li: 0.5909; Ga: 0.3182; Cu: 0.0909
mp-1209306,Rb6Na4Tl13,"Na, Rb, Tl",3,0.0,Cubic,204,Im-3,0.0,True,True,0.37645144438705036,Rb: 0.2609; Na: 0.1739; Tl: 0.5652
mp-600480,Y12Ni6Pb,"Ni, Pb, Y",3,0.0,Cubic,204,Im-3,0.0,False,True,0.37261819779720884,Y: 0.6316; Ni: 0.3158; Pb: 0.0526
mp-1213698,Cs6Na4Tl13,"Cs, Na, Tl",3,0.0,Cubic,204,Im-3,0.0,True,True,0.3863497930255541,Cs: 0.2609; Na: 0.1739; Tl: 0.5652
mp-1211411,Li3Sn3Pt2,"Li, Pt, Sn",3,0.01619891640624882,Cubic,206,Ia-3,0.0,True,True,0.5505395081190813,Li: 0.3750; Sn: 0.3750; Pt: 0.2500
mp-1227416,Ca2(ZnAu3)3,"Au, Ca, Zn",3,0.0,Orthorhombic,21,C222,0.0,True,True,0.6962379063382158,Ca: 0.3333; Zn: 0.1667; Au: 0.5000
mp-1223267,La2(MgAg3)3,"Ag, La, Mg",3,0.0,Orthorhombic,21,C222,0.0,True,True,0.38639358172723304,La: 0.3333; Mg: 0.1667; Ag: 0.5000
mp-1215345,Zr8Co3Cu,"Co, Cu, Zr",3,0.012292226666666295,Orthorhombic,21,C222,0.0,True,True,0.2616772821625904,Zr: 0.6667; Co: 0.2500; Cu: 0.0833
mp-1227673,Ca4AlZn43,"Al, Ca, Zn",3,0.0010466711742473933,Orthorhombic,21,C222,0.0,True,True,0.17949001829256872,Ca: 0.0833; Al: 0.0208; Zn: 0.8958
mp-640274,La3Sn13Rh4,"La, Rh, Sn",3,0.0,Cubic,214,I4_132,0.0,False,True,0.35664408028172845,La: 0.1500; Sn: 0.6500; Rh: 0.2000
mp-30707,Zn36Ga5Ni8,"Ga, Ni, Zn",3,0.01861808702093981,Cubic,215,P-43m,0.0,False,True,0.10096741549671674,Zn: 0.7347; Ga: 0.1020; Ni: 0.1633
mp-1188448,Li2MgIr,"Ir, Li, Mg",3,0.07401246291666652,Cubic,215,P-43m,0.0,False,True,0.49916805787229623,Li: 0.5000; Mg: 0.2500; Ir: 0.2500
mp-567485,CaGaAu3,"Au, Ca, Ga",3,0.0,Cubic,205,Pa-3,0.0,False,True,0.6121960470306878,Ca: 0.2000; Ga: 0.2000; Au: 0.6000
mp-1185710,Mg16Al12Sn,"Al, Mg, Sn",3,0.033937769655173256,Cubic,217,I-43m,0.0,True,True,0.1741635351610261,Mg: 0.5517; Al: 0.4138; Sn: 0.0345
mp-1185729,Mg16MnAl12,"Al, Mg, Mn",3,0.06918277491379321,Cubic,217,I-43m,0.0,True,True,0.14728942121840846,Mg: 0.5517; Mn: 0.0345; Al: 0.4138
mp-973970,Li(Mg4Al3)4,"Al, Li, Mg",3,0.008505316479886282,Cubic,217,I-43m,0.0,True,True,0.20563544806282796,Li: 0.1250; Mg: 0.5000; Al: 0.3750
mp-1095369,Sr3(GaIr)4,"Ga, Ir, Sr",3,0.0,Cubic,217,I-43m,0.0,False,True,0.5313529900169943,Sr: 0.6000; Ga: 0.2000; Ir: 0.2000
mp-11285,Ca3(GaNi)4,"Ca, Ga, Ni",3,0.0,Cubic,217,I-43m,0.0,False,True,0.42249733726971583,Ca: 0.6000; Ga: 0.2000; Ni: 0.2000
mp-1186061,Na(Mg4Al3)4,"Al, Mg, Na",3,0.011105370642094492,Cubic,217,I-43m,0.0,True,True,0.21811694111187238,Na: 0.1250; Mg: 0.5000; Al: 0.3750
mp-1185732,Mg16TaAl12,"Al, Mg, Ta",3,0.0743886011637942,Cubic,217,I-43m,0.0,True,True,0.14630933301559168,Mg: 0.5517; Ta: 0.0345; Al: 0.4138
mp-1185665,Mg16Al12Ga,"Al, Ga, Mg",3,0.016164672327586338,Cubic,217,I-43m,0.0,True,True,0.1608538453750428,Mg: 0.5517; Al: 0.4138; Ga: 0.0345
mp-1185734,Mg16TiAl12,"Al, Mg, Ti",3,0.05807618047413987,Cubic,217,I-43m,0.0,True,True,0.1470486504140212,Mg: 0.5517; Ti: 0.0345; Al: 0.4138
mp-1185626,Mg16Al12Cd,"Al, Cd, Mg",3,0.018281057241379628,Cubic,217,I-43m,0.0,True,True,0.15292316194797462,Mg: 0.5517; Al: 0.4138; Cd: 0.0345
mp-1187106,Sr(Mg4Al3)4,"Al, Mg, Sr",3,0.023256682643682414,Cubic,217,I-43m,0.0,True,True,0.2130580906701269,Sr: 0.1250; Mg: 0.5000; Al: 0.3750
mp-1185720,Mg16Al12Zn,"Al, Mg, Zn",3,0.016685371124137927,Cubic,217,I-43m,0.0,True,True,0.15089428227506035,Mg: 0.5517; Al: 0.4138; Zn: 0.0345
mp-22418,Sr3(SnIr)4,"Ir, Sn, Sr",3,0.0,Cubic,217,I-43m,0.0,False,True,0.5587629193137283,Sr: 0.6000; Sn: 0.2000; Ir: 0.2000
mp-1185650,Mg16Al12Bi,"Al, Bi, Mg",3,0.05752905465517255,Cubic,217,I-43m,0.0,True,True,0.1803774612789952,Mg: 0.5517; Al: 0.4138; Bi: 0.0345
mp-971834,Y(Mg4Al3)4,"Al, Mg, Y",3,0.013019992887932652,Cubic,217,I-43m,0.0,True,True,0.1565596930886108,Y: 0.1250; Mg: 0.5000; Al: 0.3750
mp-972924,La(Mg4Al3)4,"Al, La, Mg",3,0.01908896341475197,Cubic,217,I-43m,0.0,True,True,0.17839124838399445,La: 0.1250; Mg: 0.5000; Al: 0.3750
mp-1185726,Mg16ScAl12,"Al, Mg, Sc",3,0.02499895047413858,Cubic,217,I-43m,0.0,True,True,0.14658214694367094,Mg: 0.5517; Sc: 0.0345; Al: 0.4138
mp-1185715,Mg16Al12Tl,"Al, Mg, Tl",3,0.018853593620689946,Cubic,217,I-43m,0.0,True,True,0.1495884167020127,Mg: 0.5517; Al: 0.4138; Tl: 0.0345
mp-1185657,Mg16Al12Cr,"Al, Cr, Mg",3,0.07287625797413799,Cubic,217,I-43m,0.0,True,True,0.15137106253550323,Mg: 0.5517; Al: 0.4138; Cr: 0.0345
mp-1185677,Mg16Al12Pb,"Al, Mg, Pb",3,0.029694209655172,Cubic,217,I-43m,0.0,True,True,0.21848902812321247,Mg: 0.5517; Al: 0.4138; Pb: 0.0345
mp-30253,Na10SrSn12,"Na, Sn, Sr",3,0.0,Cubic,217,I-43m,0.6698,False,False,0.5136201622575818,Na: 0.4348; Sr: 0.0435; Sn: 0.5217
mp-1183843,Cs(Mg4Al3)4,"Al, Cs, Mg",3,0.07940862139120242,Cubic,217,I-43m,0.0,True,True,0.25552641742097826,Cs: 0.1250; Mg: 0.5000; Al: 0.3750
mp-30252,Na10CaSn12,"Ca, Na, Sn",3,0.0,Cubic,217,I-43m,0.6648999999999998,False,False,0.5115235407126573,Na: 0.4348; Ca: 0.0435; Sn: 0.5217
mp-1185685,Mg16Al12In,"Al, In, Mg",3,0.01718332068965589,Cubic,217,I-43m,0.0,True,True,0.15862518734253092,Mg: 0.5517; Al: 0.4138; In: 0.0345
mp-1185723,Mg16Al12V,"Al, Mg, V",3,0.08376135875000168,Cubic,217,I-43m,0.0,True,True,0.15000277444917298,Mg: 0.5517; Al: 0.4138; V: 0.0345
mp-570621,V2Ga8Cu3,"Cu, Ga, V",3,0.0,Cubic,220,I-43d,0.0,False,True,0.08249798276178222,V: 0.1538; Ga: 0.6154; Cu: 0.2308
mp-1105333,La3Bi4Au3,"Au, Bi, La",3,0.0,Cubic,220,I-43d,0.37929999999999975,False,False,0.5662508278139644,La: 0.3000; Bi: 0.4000; Au: 0.3000
mp-567502,Ga8Cu3Mo2,"Cu, Ga, Mo",3,0.0,Cubic,220,I-43d,0.0,False,True,0.12307692307692311,Ga: 0.6154; Cu: 0.2308; Mo: 0.1538
mp-568017,Ga8Cu3W2,"Cu, Ga, W",3,0.0,Cubic,220,I-43d,0.0,False,True,0.19313667478738722,Ga: 0.6154; Cu: 0.2308; W: 0.1538
mp-1211407,La3Ni3Bi4,"Bi, La, Ni",3,0.0,Cubic,220,I-43d,0.0,True,True,0.4025779427638826,La: 0.3000; Ni: 0.3000; Bi: 0.4000
mp-1189173,La3Bi4Pt3,"Bi, La, Pt",3,0.02173080175000308,Cubic,220,I-43d,0.0,False,True,0.4847638600390915,La: 0.3000; Bi: 0.4000; Pt: 0.3000
mp-1105893,La3Cu3Bi4,"Bi, Cu, La",3,0.0,Cubic,220,I-43d,0.2695999999999996,False,False,0.40111843637509353,La: 0.3000; Cu: 0.3000; Bi: 0.4000
mp-30818,Li2AlPt,"Al, Li, Pt",3,0.0,Cubic,216,F-43m,0.0,False,True,0.5375116277812043,Li: 0.5000; Al: 0.2500; Pt: 0.2500
mp-1216949,TiCoSn,"Co, Sn, Ti",3,0.06951131131944432,Cubic,216,F-43m,0.0,True,True,0.1820866704499688,Ti: 0.3333; Co: 0.3333; Sn: 0.3333
mp-1222615,Li2MgSn,"Li, Mg, Sn",3,0.0,Cubic,216,F-43m,0.04749999999999943,True,False,0.40008592827041545,Li: 0.5000; Mg: 0.2500; Sn: 0.2500
mp-999052,Ti2MnAl,"Al, Mn, Ti",3,0.07675921665000018,Cubic,216,F-43m,0.05109999999999992,True,False,0.02915475947422653,Ti: 0.5000; Mn: 0.2500; Al: 0.2500
mp-30344,Li2InAg,"Ag, In, Li",3,0.0,Cubic,216,F-43m,0.0,False,True,0.44070256409510483,Li: 0.5000; In: 0.2500; Ag: 0.2500
mp-1222614,Li2PdPb,"Li, Pb, Pd",3,0.0,Cubic,216,F-43m,0.0,True,True,0.6441418710191102,Li: 0.5000; Pd: 0.2500; Pb: 0.2500
mp-13240,ScInCu4,"Cu, In, Sc",3,0.0,Cubic,216,F-43m,0.0,False,True,0.19723082923316013,Sc: 0.1667; In: 0.1667; Cu: 0.6667
mp-1072398,MnCu4Sn,"Cu, Mn, Sn",3,0.05794850867816059,Cubic,216,F-43m,0.0,False,True,0.13667682889047267,Mn: 0.1667; Cu: 0.6667; Sn: 0.1667
mp-637771,ZrInNi4,"In, Ni, Zr",3,0.0,Cubic,216,F-43m,0.0,False,True,0.2118503140322325,Zr: 0.1667; In: 0.1667; Ni: 0.6667
mp-570078,La4MgIr,"Ir, La, Mg",3,0.0,Cubic,216,F-43m,0.0,False,True,0.40168049768718206,La: 0.6667; Mg: 0.1667; Ir: 0.1667
mp-1222671,Li2CdIn,"Cd, In, Li",3,0.0,Cubic,216,F-43m,0.0,True,True,0.3788386859865291,Li: 0.5000; Cd: 0.2500; In: 0.2500
mp-31442,Li2InRh,"In, Li, Rh",3,0.0,Cubic,216,F-43m,0.0,False,True,0.5539629951540084,Li: 0.5000; In: 0.2500; Rh: 0.2500
mp-5549,MgSnAu,"Au, Mg, Sn",3,0.0,Cubic,216,F-43m,0.0,False,True,0.5024163833139025,Mg: 0.3333; Sn: 0.3333; Au: 0.3333
mp-1221252,Na2TlHg,"Hg, Na, Tl",3,0.0057287649999970824,Cubic,216,F-43m,0.0,True,True,0.46005434461593775,Na: 0.5000; Tl: 0.2500; Hg: 0.2500
mp-31443,Li2InIr,"In, Ir, Li",3,0.004717784583331053,Cubic,216,F-43m,0.0,False,True,0.5263791409241062,Li: 0.5000; In: 0.2500; Ir: 0.2500
mp-1216641,TiSnRh,"Rh, Sn, Ti",3,0.004129271775363819,Cubic,216,F-43m,0.0,True,True,0.30302181806302686,Ti: 0.3333; Sn: 0.3333; Rh: 0.3333
mp-1222612,Li2SnIr,"Ir, Li, Sn",3,0.0,Cubic,216,F-43m,0.0,True,True,0.5565069631190611,Li: 0.5000; Sn: 0.2500; Ir: 0.2500
mp-1207998,Y4MgCo,"Co, Mg, Y",3,0.0,Cubic,216,F-43m,0.0,True,True,0.24150569351466641,Y: 0.6667; Mg: 0.1667; Co: 0.1667
mp-20389,Na2CdPb,"Cd, Na, Pb",3,0.0,Cubic,216,F-43m,0.0,False,True,0.5854912467321779,Na: 0.5000; Cd: 0.2500; Pb: 0.2500
mp-1206717,LaBiPd,"Bi, La, Pd",3,0.0,Cubic,216,F-43m,0.1216999999999997,True,False,0.4817560470703911,La: 0.3333; Bi: 0.3333; Pd: 0.3333
mp-1222648,Li2MgCd,"Cd, Li, Mg",3,0.0,Cubic,216,F-43m,0.0,True,True,0.29266021253323793,Li: 0.5000; Mg: 0.2500; Cd: 0.2500
mp-1211420,La4CdIr,"Cd, Ir, La",3,0.0,Cubic,216,F-43m,0.0,True,True,0.4246730768746969,La: 0.6667; Cd: 0.1667; Ir: 0.1667
mp-30406,Li2TlAu,"Au, Li, Tl",3,0.028401330000001224,Cubic,216,F-43m,0.0,False,True,0.638983567863838,Li: 0.5000; Tl: 0.2500; Au: 0.2500
mp-31451,ZrCoBi,"Bi, Co, Zr",3,0.0,Cubic,216,F-43m,0.9771999999999998,False,False,0.29780679792256065,Zr: 0.3333; Co: 0.3333; Bi: 0.3333
mp-924128,HfNiSn,"Hf, Ni, Sn",3,0.0,Cubic,216,F-43m,0.3868999999999998,True,False,0.30003703475108234,Hf: 0.3333; Ni: 0.3333; Sn: 0.3333
mp-1227276,Be4AlCr,"Al, Be, Cr",3,0.02146371916666645,Cubic,216,F-43m,0.0,True,True,0.03387066905483591,Be: 0.6667; Al: 0.1667; Cr: 0.1667
mp-1224677,Hf4NiRh,"Hf, Ni, Rh",3,0.002748419166664462,Cubic,216,F-43m,0.0,True,True,0.38969004777301314,Hf: 0.6667; Ni: 0.1667; Rh: 0.1667
mp-1077362,YMnNi4,"Mn, Ni, Y",3,0.032461854315131156,Cubic,216,F-43m,0.0,False,True,0.26518861212352235,Y: 0.1667; Mn: 0.1667; Ni: 0.6667
mp-1226720,CdSnAu,"Au, Cd, Sn",3,0.0,Cubic,216,F-43m,0.0,True,True,0.3546202977207531,Cd: 0.3333; Sn: 0.3333; Au: 0.3333
mp-1215177,ZrTiMo4,"Mo, Ti, Zr",3,0.07514800370370622,Cubic,216,F-43m,0.0,True,True,0.3471030906741621,Zr: 0.1667; Ti: 0.1667; Mo: 0.6667
mp-1222659,Li2GaAg,"Ag, Ga, Li",3,0.0,Cubic,216,F-43m,0.0,True,True,0.44701789673345294,Li: 0.5000; Ga: 0.2500; Ag: 0.2500
mp-1215319,ZrAlFe4,"Al, Fe, Zr",3,0.0,Cubic,216,F-43m,0.0,True,True,0.1879716290649558,Zr: 0.1667; Al: 0.1667; Fe: 0.6667
mp-11304,Li2CdPb,"Cd, Li, Pb",3,0.030670387499998508,Cubic,216,F-43m,0.0,False,True,0.5625166664197605,Li: 0.5000; Cd: 0.2500; Pb: 0.2500
mp-30591,Li2CuSn,"Cu, Li, Sn",3,0.0,Cubic,216,F-43m,0.0,False,True,0.4754734482597319,Li: 0.5000; Cu: 0.2500; Sn: 0.2500
mp-30381,Li2GaAu,"Au, Ga, Li",3,0.0,Cubic,216,F-43m,0.0,False,True,0.6508600079894293,Li: 0.5000; Ga: 0.2500; Au: 0.2500
mp-1224193,HfZrMo4,"Hf, Mo, Zr",3,0.00037729916666506824,Cubic,216,F-43m,0.0,True,True,0.39843095038189774,Hf: 0.1667; Zr: 0.1667; Mo: 0.6667
mp-1215333,ZrAlCo4,"Al, Co, Zr",3,0.04381374058823173,Cubic,216,F-43m,0.0,True,True,0.20949675149960884,Zr: 0.1667; Al: 0.1667; Co: 0.6667
mp-1206635,Na2SnHg,"Hg, Na, Sn",3,0.030109953437499115,Cubic,216,F-43m,0.0,True,True,0.525190441649503,Na: 0.5000; Sn: 0.2500; Hg: 0.2500
mp-13172,YMgCu4,"Cu, Mg, Y",3,0.0,Cubic,216,F-43m,0.0,False,True,0.30046722875474374,Y: 0.1667; Mg: 0.1667; Cu: 0.6667
mp-621592,YPbAu,"Au, Pb, Y",3,0.0,Cubic,216,F-43m,0.0,False,True,0.5791372894228104,Y: 0.3333; Pb: 0.3333; Au: 0.3333
mp-21026,Li2InPt,"In, Li, Pt",3,0.0,Cubic,216,F-43m,0.0,False,True,0.5539629951540084,Li: 0.5000; In: 0.2500; Pt: 0.2500
mp-30449,MgCuBi,"Bi, Cu, Mg",3,0.005956278333331788,Cubic,216,F-43m,0.0,False,True,0.3103045099396541,Mg: 0.3333; Cu: 0.3333; Bi: 0.3333
mp-1215205,ZrTaCo4,"Co, Ta, Zr",3,0.049591088499999714,Cubic,216,F-43m,0.0,True,True,0.22462932429523377,Zr: 0.1667; Ta: 0.1667; Co: 0.6667
mp-3289,LaMgNi4,"La, Mg, Ni",3,0.0,Cubic,216,F-43m,0.0,False,True,0.33782391863217726,La: 0.1667; Mg: 0.1667; Ni: 0.6667
mp-30847,TiSnPt,"Pt, Sn, Ti",3,0.0,Cubic,216,F-43m,0.8681000000000001,False,False,0.30302181806302686,Ti: 0.3333; Sn: 0.3333; Pt: 0.3333
mp-1072255,ScNi4Au,"Au, Ni, Sc",3,0.0,Cubic,216,F-43m,0.0,False,True,0.341158158174312,Sc: 0.1667; Ni: 0.6667; Au: 0.1667
mp-2894,ScSnAu,"Au, Sc, Sn",3,0.0,Cubic,216,F-43m,0.12249999999999961,False,False,0.48175604707039105,Sc: 0.3333; Sn: 0.3333; Au: 0.3333
mp-1215917,Zr4NiMo,"Mo, Ni, Zr",3,0.009926580625000625,Cubic,216,F-43m,0.0,True,True,0.340085773494472,Zr: 0.6667; Ni: 0.1667; Mo: 0.1667
mp-1100411,CaCdSn,"Ca, Cd, Sn",3,0.0901636922222222,Cubic,216,F-43m,0.0,True,True,0.40422765862815474,Ca: 0.3333; Cd: 0.3333; Sn: 0.3333
mp-1211384,La4CdPt,"Cd, La, Pt",3,0.0,Cubic,216,F-43m,0.0,True,True,0.45061994333732414,La: 0.6667; Cd: 0.1667; Pt: 0.1667
mp-1094088,NbCoSn,"Co, Nb, Sn",3,0.0,Cubic,216,F-43m,0.9703999999999997,True,False,0.15434449203720293,Nb: 0.3333; Co: 0.3333; Sn: 0.3333
mp-581510,La4CdCo,"Cd, Co, La",3,0.0,Cubic,216,F-43m,0.0,False,True,0.3275371056163798,La: 0.6667; Cd: 0.1667; Co: 0.1667
mp-11361,MgCuSn,"Cu, Mg, Sn",3,0.0,Cubic,216,F-43m,0.0,False,True,0.2932954520994524,Mg: 0.3333; Cu: 0.3333; Sn: 0.3333
mp-1211438,La4CdPd,"Cd, La, Pd",3,0.0,Cubic,216,F-43m,0.0,True,True,0.4246730768746969,La: 0.6667; Cd: 0.1667; Pd: 0.1667
mp-1196499,Ba20Zn5Hg99,"Ba, Hg, Zn",3,0.01099860090570648,Cubic,216,F-43m,0.06080000000000041,False,False,0.40787285917400834,Ba: 0.1613; Zn: 0.0403; Hg: 0.7984
mp-1207787,Y4MgPd,"Mg, Pd, Y",3,0.0030267058333333097,Cubic,216,F-43m,0.04630000000000001,True,False,0.3600192896066667,Y: 0.6667; Mg: 0.1667; Pd: 0.1667
mp-569582,La4MgCo,"Co, La, Mg",3,0.0,Cubic,216,F-43m,0.0,False,True,0.2855258307053846,La: 0.6667; Mg: 0.1667; Co: 0.1667
mp-1210750,Li2ZnPb,"Li, Pb, Zn",3,0.040884049166667324,Cubic,216,F-43m,0.0,True,True,0.5593076076722003,Li: 0.5000; Zn: 0.2500; Pb: 0.2500
mp-1215175,ZrTiW4,"Ti, W, Zr",3,0.03133818833333635,Cubic,216,F-43m,0.0,True,True,0.44024298846079174,Zr: 0.1667; Ti: 0.1667; W: 0.6667
mp-21029,Li2InPd,"In, Li, Pd",3,0.0,Cubic,216,F-43m,0.0,False,True,0.5263791409241062,Li: 0.5000; In: 0.2500; Pd: 0.2500
mp-11533,ZrZnNi4,"Ni, Zn, Zr",3,0.0,Cubic,216,F-43m,0.0,False,True,0.21847959477565246,Zr: 0.1667; Zn: 0.1667; Ni: 0.6667
mp-22027,MnSnAu,"Au, Mn, Sn",3,0.07744045735632099,Cubic,216,F-43m,0.0,False,True,0.40614720921798236,Mn: 0.3333; Sn: 0.3333; Au: 0.3333
mp-30405,Li2SnAu,"Au, Li, Sn",3,0.0,Cubic,216,F-43m,0.0,False,True,0.6672892925860567,Li: 0.5000; Sn: 0.2500; Au: 0.2500
mp-924130,TiNiSn,"Ni, Sn, Ti",3,0.0,Cubic,216,F-43m,0.4527000000000001,False,False,0.18732028424302818,Ti: 0.3333; Ni: 0.3333; Sn: 0.3333
mp-3433,YMgNi4,"Mg, Ni, Y",3,0.0,Cubic,216,F-43m,0.0,False,True,0.3051638903933425,Y: 0.1667; Mg: 0.1667; Ni: 0.6667
mp-1224895,GaFe2Co,"Co, Fe, Ga",3,0.033829033750000015,Cubic,216,F-43m,0.0,True,True,0.025860201081971432,Ga: 0.2500; Fe: 0.5000; Co: 0.2500
mp-1018136,LaBiPt,"Bi, La, Pt",3,0.0,Cubic,216,F-43m,0.0,True,True,0.50622788017519,La: 0.3333; Bi: 0.3333; Pt: 0.3333
mp-1197757,Ba20Cd4Hg99,"Ba, Cd, Hg",3,0.000821467439024004,Cubic,216,F-43m,0.14210000000000012,False,False,0.4088399229805933,Ba: 0.1626; Cd: 0.0325; Hg: 0.8049
mp-1008624,YBiPd,"Bi, Pd, Y",3,0.0,Cubic,216,F-43m,0.0,False,True,0.42593687586568774,Y: 0.3333; Bi: 0.3333; Pd: 0.3333
mp-1222646,Li2MgHg,"Hg, Li, Mg",3,0.0,Cubic,216,F-43m,0.0,True,True,0.41643576935705223,Li: 0.5000; Mg: 0.2500; Hg: 0.2500
mp-31168,Li2AlAg,"Ag, Al, Li",3,0.0,Cubic,216,F-43m,0.0,False,True,0.41088319508103516,Li: 0.5000; Al: 0.2500; Ag: 0.2500
mp-21418,MnSnPt,"Mn, Pt, Sn",3,0.047955984022988396,Cubic,216,F-43m,0.0,False,True,0.2987752778706207,Mn: 0.3333; Sn: 0.3333; Pt: 0.3333
mp-3676,MgCu4Sn,"Cu, Mg, Sn",3,0.0,Cubic,216,F-43m,0.0,False,True,0.2254193622759342,Mg: 0.1667; Cu: 0.6667; Sn: 0.1667