material_id,formula,elements,num_elements,energy_above_hull,crystal_system,spacegroup_number,spacegroup_symbol,band_gap,theoretical,is_metal,electronegativity_difference,atomic_concentrations
mp-542804,La5NiPb3,"La, Ni, Pb",3,0.018664484444438578,Hexagonal,193,P6_3/mcm,0.0,False,True,0.5720139858430037,La: 0.5556; Ni: 0.1111; Pb: 0.3333
mp-30676,Zr3Ti2Ga3,"Ga, Ti, Zr",3,0.0,Hexagonal,193,P6_3/mcm,0.0,False,True,0.2082516506537223,Zr: 0.3750; Ti: 0.2500; Ga: 0.3750
mp-1106117,La5AgPb3,"Ag, La, Pb",3,0.0008291061111069808,Hexagonal,193,P6_3/mcm,0.0,False,True,0.5732515014813456,La: 0.5556; Ag: 0.1111; Pb: 0.3333
mp-1199868,Y6Al43W4,"Al, W, Y",3,0.0,Hexagonal,193,P6_3/mcm,0.0,False,True,0.2439602941740714,Y: 0.1132; Al: 0.8113; W: 0.0755
mp-1207857,Y6Ta4Al43,"Al, Ta, Y",3,0.0,Hexagonal,193,P6_3/mcm,0.006000000000000227,True,False,0.12401925687930766,Y: 0.1132; Ta: 0.0755; Al: 0.8113
mp-580161,Na3InBi2,"Bi, In, Na",3,0.0,Monoclinic,14,P2_1/c,0.06889999999999974,False,False,0.5112973694436536,Na: 0.5000; In: 0.1667; Bi: 0.3333
mp-31483,Na5TlSn3,"Na, Sn, Tl",3,0.0,Monoclinic,14,P2_1/c,0.05259999999999998,False,False,0.4797221418001605,Na: 0.5556; Tl: 0.1111; Sn: 0.3333
mp-1196215,La2MgNi2,"La, Mg, Ni",3,0.000982238249998879,Monoclinic,14,P2_1/c,0.0,False,True,0.3705455437594682,La: 0.4000; Mg: 0.2000; Ni: 0.4000
mp-504985,Ba(GaPt)2,"Ba, Ga, Pt",3,0.0,Monoclinic,14,P2_1/c,0.0,False,True,0.5772925312756667,Ba: 0.3333; Ga: 0.3333; Pt: 0.3333
mp-1102982,LaGaNi,"Ga, La, Ni",3,0.0,Monoclinic,14,P2_1/c,0.0,False,True,0.3605859429071275,La: 0.3333; Ga: 0.3333; Ni: 0.3333
mp-29387,K5SnBi3,"Bi, K, Sn",3,0.004762291087963888,Monoclinic,14,P2_1/c,0.0032999999999998586,False,False,0.5890859209166539,K: 0.5556; Sn: 0.1111; Bi: 0.3333
mp-1194038,Na(GaAu2)2,"Au, Ga, Na",3,0.010743824999997376,Monoclinic,14,P2_1/c,0.0,False,True,0.6625896165802782,Na: 0.2500; Ga: 0.2500; Au: 0.5000
mp-1185199,La5Al2Ru3,"Al, La, Ru",3,0.0,Cubic,199,I2_13,0.00590000000000046,False,False,0.4779079409258649,La: 0.5000; Al: 0.2000; Ru: 0.3000
mp-1220523,Nb3ZnAu,"Au, Nb, Zn",3,0.045375435999998714,Cubic,198,P2_13,0.0,True,True,0.3715050470720418,Nb: 0.6000; Zn: 0.2000; Au: 0.2000
mp-1103566,K4ZnBi2,"Bi, K, Zn",3,0.0,Orthorhombic,20,C222_1,0.32909999999999995,False,False,0.5449096536236488,K: 0.5714; Zn: 0.1429; Bi: 0.2857
mp-1228822,AlV6Sn,"Al, Sn, V",3,0.0070780700000003804,Cubic,200,Pm-3,0.0,True,True,0.11027664077219619,Al: 0.1250; V: 0.7500; Sn: 0.1250
mp-1221468,Mo6OsRu,"Mo, Os, Ru",3,0.03791769729166816,Cubic,200,Pm-3,0.0,True,True,0.01732050807568879,Mo: 0.7500; Os: 0.1250; Ru: 0.1250
mp-1216457,V6CoRh,"Co, Rh, V",3,0.010898097500001924,Cubic,200,Pm-3,0.0,True,True,0.21901769334919038,V: 0.7500; Co: 0.1250; Rh: 0.1250
mp-1214079,Ca6Cd32Cu,"Ca, Cd, Cu",3,0.010066790384615665,Cubic,200,Pm-3,0.0,True,True,0.25342155631891417,Ca: 0.1538; Cd: 0.8205; Cu: 0.0256
mp-30910,Mg2Ga5Cu6,"Cu, Ga, Mg",3,0.0,Cubic,200,Pm-3,0.0,False,True,0.20235594627804449,Mg: 0.1538; Ga: 0.3846; Cu: 0.4615
mp-1216460,V6CoIr,"Co, Ir, V",3,0.014149051874998264,Cubic,200,Pm-3,0.0,True,True,0.19472737352514163,V: 0.7500; Co: 0.1250; Ir: 0.1250
mp-1220362,Nb6AlSn,"Al, Nb, Sn",3,0.03333992449999812,Cubic,200,Pm-3,0.0,True,True,0.11863151984190369,Nb: 0.7500; Al: 0.1250; Sn: 0.1250
mp-607437,Na2In5Au6,"Au, In, Na",3,0.01902666141025433,Cubic,200,Pm-3,0.0,False,True,0.5738801804719009,Na: 0.1538; In: 0.3846; Au: 0.4615
mp-1220342,Nb6GaSn,"Ga, Nb, Sn",3,0.0480320459375001,Cubic,200,Pm-3,0.0,True,True,0.12898037641439875,Nb: 0.7500; Ga: 0.1250; Sn: 0.1250
mp-1228807,AlV6Ga,"Al, Ga, V",3,0.0,Cubic,200,Pm-3,0.0,True,True,0.06082762530298223,Al: 0.1250; V: 0.7500; Ga: 0.1250
mp-1220418,Nb6RuRh,"Nb, Rh, Ru",3,0.004779119999998471,Cubic,200,Pm-3,0.0,True,True,0.27784887978899603,Nb: 0.7500; Ru: 0.1250; Rh: 0.1250
mp-30178,Mg2Al5Cu6,"Al, Cu, Mg",3,0.0,Cubic,200,Pm-3,0.0,False,True,0.21206507876860836,Mg: 0.1538; Al: 0.3846; Cu: 0.4615
mp-1220356,Nb6PtAu,"Au, Nb, Pt",3,0.0,Cubic,200,Pm-3,0.0,True,True,0.3567124191838574,Nb: 0.7500; Pt: 0.1250; Au: 0.1250
mp-1220391,Nb6PdPt,"Nb, Pd, Pt",3,0.016736528749998314,Cubic,200,Pm-3,0.0,True,True,0.27784887978899603,Nb: 0.7500; Pd: 0.1250; Pt: 0.1250
mp-1221465,Mo6IrRu,"Ir, Mo, Ru",3,0.06692294416666655,Cubic,200,Pm-3,0.0,True,True,0.01732050807568879,Mo: 0.7500; Ir: 0.1250; Ru: 0.1250
mp-1216451,V6GaSn,"Ga, Sn, V",3,0.019251374999999626,Cubic,200,Pm-3,0.0,True,True,0.11661233854099663,V: 0.7500; Ga: 0.1250; Sn: 0.1250
mp-1220417,Nb6PdRh,"Nb, Pd, Rh",3,0.017379459999999014,Cubic,200,Pm-3,0.0,True,True,0.27784887978899603,Nb: 0.7500; Pd: 0.1250; Rh: 0.1250
mp-1216439,V6CoNi,"Co, Ni, V",3,0.0005113562500014268,Cubic,200,Pm-3,0.0,True,True,0.11499320632106926,V: 0.7500; Co: 0.1250; Ni: 0.1250
mp-570806,Mg30Al24Ag19,"Ag, Al, Mg",3,0.09304620397260344,Cubic,200,Pm-3,0.0,True,True,0.24907500108277333,Mg: 0.4110; Al: 0.3288; Ag: 0.2603
mp-1220409,Nb6OsAu,"Au, Nb, Os",3,0.0,Cubic,200,Pm-3,0.0,True,True,0.3440839287150738,Nb: 0.7500; Os: 0.1250; Au: 0.1250
mp-1217024,Ti6PtAu,"Au, Pt, Ti",3,0.0011067149999988146,Cubic,200,Pm-3,0.0,True,True,0.3822875226841702,Ti: 0.7500; Pt: 0.1250; Au: 0.1250
mp-1220348,Nb6AlGa,"Al, Ga, Nb",3,0.049075181687499025,Cubic,200,Pm-3,0.0,True,True,0.06905613658466565,Nb: 0.7500; Al: 0.1250; Ga: 0.1250
mp-1216443,V6FeNi,"Fe, Ni, V",3,0.0,Cubic,200,Pm-3,0.0,True,True,0.10583005244258366,V: 0.7500; Fe: 0.1250; Ni: 0.1250
mp-1210379,Sc50In3Rh13,"In, Rh, Sc",3,0.0,Cubic,202,Fm-3,0.0,True,True,0.3668951204155713,Sc: 0.7576; In: 0.0455; Rh: 0.1970
mp-1210294,Sc25InIr7,"In, Ir, Sc",3,0.0,Cubic,202,Fm-3,0.0,True,True,0.3443427083973847,Sc: 0.7576; In: 0.0303; Ir: 0.2121
mp-1197924,Y2Ga2Co15,"Co, Ga, Y",3,0.05610546368420888,Hexagonal,194,P6_3/mmc,0.0,False,True,0.201155939289292,Y: 0.1053; Ga: 0.1053; Co: 0.7895
mp-20024,LaCuSn,"Cu, La, Sn",3,0.0,Hexagonal,194,P6_3/mmc,0.0,False,True,0.3920317447463774,La: 0.3333; Cu: 0.3333; Sn: 0.3333
mp-865625,Na2MgSn,"Mg, Na, Sn",3,0.0,Hexagonal,194,P6_3/mmc,0.0,False,True,0.4207953778263254,Na: 0.5000; Mg: 0.2500; Sn: 0.2500
mp-1025045,TiGaPd,"Ga, Pd, Ti",3,0.0,Hexagonal,194,P6_3/mmc,0.0,True,True,0.2709243436828814,Ti: 0.3333; Ga: 0.3333; Pd: 0.3333
mp-20987,YZnSn,"Sn, Y, Zn",3,0.0,Hexagonal,194,P6_3/mmc,0.0,False,True,0.30342489460600736,Y: 0.3333; Zn: 0.3333; Sn: 0.3333
mp-1071737,YZnGa,"Ga, Y, Zn",3,0.0,Hexagonal,194,P6_3/mmc,0.0,False,True,0.2491318258807306,Y: 0.3333; Zn: 0.3333; Ga: 0.3333
mp-1192597,Y10Cd3Pd,"Cd, Pd, Y",3,0.0049282019642866715,Hexagonal,194,P6_3/mmc,0.0,False,True,0.29460540887562725,Y: 0.7143; Cd: 0.2143; Pd: 0.0714
mp-1005986,Zr9CoMo4,"Co, Mo, Zr",3,0.0,Hexagonal,194,P6_3/mmc,0.0,False,True,0.37685933607073274,Zr: 0.6429; Co: 0.0714; Mo: 0.2857
mp-1217791,Ta2Cr3Cu,"Cr, Cu, Ta",3,0.07244452541666391,Hexagonal,194,P6_3/mmc,0.0,True,True,0.13399834161494517,Ta: 0.3333; Cr: 0.5000; Cu: 0.1667
mp-1018744,LaPbAu,"Au, La, Pb",3,0.010193703333330362,Hexagonal,194,P6_3/mmc,0.0,False,True,0.6351377803280166,La: 0.3333; Pb: 0.3333; Au: 0.3333
mp-1218018,Ta2GaNi3,"Ga, Ni, Ta",3,0.029826270698926294,Hexagonal,194,P6_3/mmc,0.0,True,True,0.18490237664478215,Ta: 0.3333; Ga: 0.1667; Ni: 0.5000
mp-1198904,Ca4Mg13Zn29,"Ca, Mg, Zn",3,0.023134893363168763,Hexagonal,194,P6_3/mmc,0.0,False,True,0.21475400267169886,Ca: 0.0870; Mg: 0.2826; Zn: 0.6304
mp-1218121,Ta2GaCo3,"Co, Ga, Ta",3,0.04094500255555644,Hexagonal,194,P6_3/mmc,0.0,True,True,0.1726669884166886,Ta: 0.3333; Ga: 0.1667; Co: 0.5000
mp-10892,MnAlPt,"Al, Mn, Pt",3,0.05841015318965592,Hexagonal,194,P6_3/mmc,0.0,False,True,0.33089105289942305,Mn: 0.3333; Al: 0.3333; Pt: 0.3333
mp-1214979,Ba3LiIn11,"Ba, In, Li",3,0.04455916355555711,Hexagonal,194,P6_3/mmc,0.0,True,True,0.38415043349650874,Ba: 0.2000; Li: 0.0667; In: 0.7333
mp-1079175,MgGaAu2,"Au, Ga, Mg",3,0.0,Hexagonal,194,P6_3/mmc,0.0,False,True,0.5209126606255601,Mg: 0.2500; Ga: 0.2500; Au: 0.5000
mp-1215817,Zr2GaCo3,"Co, Ga, Zr",3,0.005351662499998078,Hexagonal,194,P6_3/mmc,0.0,True,True,0.25223996511258867,Zr: 0.3333; Ga: 0.1667; Co: 0.5000
mp-1215595,Zr2AlFe3,"Al, Fe, Zr",3,0.0,Hexagonal,194,P6_3/mmc,0.0,True,True,0.22373098926066445,Zr: 0.3333; Al: 0.1667; Fe: 0.5000
mp-569834,LiCu2Sn,"Cu, Li, Sn",3,0.0047172531249990435,Hexagonal,194,P6_3/mmc,0.0,False,True,0.4077683165720456,Li: 0.2500; Cu: 0.5000; Sn: 0.2500
mp-1223870,Hf2Al3Pd,"Al, Hf, Pd",3,0.0,Hexagonal,194,P6_3/mmc,0.0,True,True,0.30004166377355,Hf: 0.3333; Al: 0.5000; Pd: 0.1667
mp-31018,SrAgBi,"Ag, Bi, Sr",3,0.0,Hexagonal,194,P6_3/mmc,0.0,False,True,0.48458458727266823,Sr: 0.3333; Ag: 0.3333; Bi: 0.3333
mp-1210773,MnGaNi,"Ga, Mn, Ni",3,0.011312523017240395,Hexagonal,194,P6_3/mmc,0.0,True,True,0.1517307556898805,Mn: 0.3333; Ga: 0.3333; Ni: 0.3333
mp-1212250,LaZnNi2,"La, Ni, Zn",3,0.030884820507246502,Hexagonal,194,P6_3/mmc,0.0,True,True,0.3307094646362574,La: 0.2500; Zn: 0.2500; Ni: 0.5000
mp-1078242,YAlPd2,"Al, Pd, Y",3,0.0,Hexagonal,194,P6_3/mmc,0.0,False,True,0.41601532423698057,Y: 0.2500; Al: 0.2500; Pd: 0.5000
mp-569151,MnGaPt,"Ga, Mn, Pt",3,0.0,Hexagonal,194,P6_3/mmc,0.0,False,True,0.3021037349432585,Mn: 0.3333; Ga: 0.3333; Pt: 0.3333
mp-1217248,Ti2Al3Ni,"Al, Ni, Ti",3,0.024952067750002804,Hexagonal,194,P6_3/mmc,0.0,True,True,0.12618328820498462,Ti: 0.3333; Al: 0.5000; Ni: 0.1667
mp-568234,Na4CaSn6,"Ca, Na, Sn",3,0.0022667457727285623,Hexagonal,194,P6_3/mmc,0.0,False,True,0.5062485588184771,Na: 0.3636; Ca: 0.0909; Sn: 0.5455
mp-1222029,Mn2GaCu3,"Cu, Ga, Mn",3,0.0,Hexagonal,194,P6_3/mmc,0.0,True,True,0.15763001688200826,Mn: 0.3333; Ga: 0.1667; Cu: 0.5000
mp-1198320,Y2Cu5Ni12,"Cu, Ni, Y",3,0.03683442263157666,Hexagonal,194,P6_3/mmc,0.0,True,True,0.21089704200597456,Y: 0.1053; Cu: 0.2632; Ni: 0.6316
mp-1206556,MnCoSn,"Co, Mn, Sn",3,0.09642074951149571,Hexagonal,194,P6_3/mmc,0.0,True,True,0.1774510887227488,Mn: 0.3333; Co: 0.3333; Sn: 0.3333
mp-1215796,Zr2Co3Mo,"Co, Mo, Zr",3,0.011225496249998912,Hexagonal,194,P6_3/mmc,0.0,True,True,0.30858098162754977,Zr: 0.3333; Co: 0.5000; Mo: 0.1667
mp-1207800,Y2Cr2Fe15,"Cr, Fe, Y",3,0.03843841763157663,Hexagonal,194,P6_3/mmc,0.0,True,True,0.1883328226241043,Y: 0.1053; Cr: 0.1053; Fe: 0.7895
mp-1196730,Y2Al3Fe14,"Al, Fe, Y",3,0.03171543315789638,Hexagonal,194,P6_3/mmc,0.0,False,True,0.19240567714685022,Y: 0.1053; Al: 0.1579; Fe: 0.7368
mp-1192484,Y10Cd3Ru,"Cd, Ru, Y",3,0.0,Hexagonal,194,P6_3/mmc,0.0,False,True,0.29460540887562725,Y: 0.7143; Cd: 0.2143; Ru: 0.0714
mp-1193334,Hf9CoRe4,"Co, Hf, Re",3,0.0,Hexagonal,194,P6_3/mmc,0.0,False,True,0.28561784086504144,Hf: 0.6429; Co: 0.0714; Re: 0.2857
mp-1205318,BaAgBi,"Ag, Ba, Bi",3,0.0,Hexagonal,194,P6_3/mmc,0.0,False,True,0.5127919222799395,Ba: 0.3333; Ag: 0.3333; Bi: 0.3333
mp-1192560,Y10Cd3Ni,"Cd, Ni, Y",3,0.0,Hexagonal,194,P6_3/mmc,0.0,False,True,0.24257546690227585,Y: 0.7143; Cd: 0.2143; Ni: 0.0714
mp-973612,Hf9CoMo4,"Co, Hf, Mo",3,0.0,Hexagonal,194,P6_3/mmc,0.0,False,True,0.3910138574714378,Hf: 0.6429; Co: 0.0714; Mo: 0.2857
mp-1071876,CaAgBi,"Ag, Bi, Ca",3,0.04563347000000073,Hexagonal,194,P6_3/mmc,0.0,False,True,0.46108567533594014,Ca: 0.3333; Ag: 0.3333; Bi: 0.3333
mp-1194431,Hf9FeW4,"Fe, Hf, W",3,0.001988943660716558,Hexagonal,194,P6_3/mmc,0.0,False,True,0.4743486404039345,Hf: 0.6429; Fe: 0.0714; W: 0.2857
mp-1018741,LaCuPb,"Cu, La, Pb",3,0.01849763166666385,Hexagonal,194,P6_3/mmc,0.0,False,True,0.5096621974951208,La: 0.3333; Cu: 0.3333; Pb: 0.3333
mp-1224377,Hf2Al3Co,"Al, Co, Hf",3,0.007234053992533518,Hexagonal,194,P6_3/mmc,0.0,True,True,0.20194196085894467,Hf: 0.3333; Al: 0.5000; Co: 0.1667
mp-8914,SrGaSn,"Ga, Sn, Sr",3,0.0,Hexagonal,194,P6_3/mmc,0.0,False,True,0.444996878890428,Sr: 0.3333; Ga: 0.3333; Sn: 0.3333
mp-1208806,Sr2Mg3Al,"Al, Mg, Sr",3,0.027220145833332765,Hexagonal,194,P6_3/mmc,0.0,True,True,0.23086792761230399,Sr: 0.3333; Mg: 0.5000; Al: 0.1667
mp-1208710,Sr4Mg3Al5,"Al, Mg, Sr",3,0.021198464583334076,Hexagonal,194,P6_3/mmc,0.0,True,True,0.2840334487344757,Sr: 0.3333; Mg: 0.2500; Al: 0.4167
mp-1102307,Zr2V3Ru,"Ru, V, Zr",3,0.0,Hexagonal,194,P6_3/mmc,0.0,False,True,0.29004310024546354,Zr: 0.3333; V: 0.5000; Ru: 0.1667
mp-1215662,Zr2CrFe3,"Cr, Fe, Zr",3,0.03743915666666808,Hexagonal,194,P6_3/mmc,0.0,True,True,0.22388613177238112,Zr: 0.3333; Cr: 0.1667; Fe: 0.5000
mp-1071862,YAlZn,"Al, Y, Zn",3,0.0,Hexagonal,194,P6_3/mmc,0.0,False,True,0.1939644870130154,Y: 0.3333; Al: 0.3333; Zn: 0.3333
mp-1224435,Hf2V3Ru,"Hf, Ru, V",3,0.0,Hexagonal,194,P6_3/mmc,0.0,True,True,0.30037476591751183,Hf: 0.3333; V: 0.5000; Ru: 0.1667
mp-1218041,TaAlNi6,"Al, Ni, Ta",3,0.0,Hexagonal,194,P6_3/mmc,0.0,True,True,0.15615997406505927,Ta: 0.1250; Al: 0.1250; Ni: 0.7500
mp-1207156,LiInRh,"In, Li, Rh",3,0.024632655000001336,Hexagonal,194,P6_3/mmc,0.0,True,True,0.5354126134736336,Li: 0.3333; In: 0.3333; Rh: 0.3333
mp-510441,YInPt2,"In, Pt, Y",3,0.0,Hexagonal,194,P6_3/mmc,0.0,False,True,0.4373785545725807,Y: 0.2500; In: 0.2500; Pt: 0.5000
mp-20743,LaInPd2,"In, La, Pd",3,0.0,Hexagonal,194,P6_3/mmc,0.0,False,True,0.44966654311834237,La: 0.2500; In: 0.2500; Pd: 0.5000
mp-1072802,CaZnSn,"Ca, Sn, Zn",3,0.034536365000000124,Hexagonal,194,P6_3/mmc,0.0,False,True,0.40002777681333856,Ca: 0.3333; Zn: 0.3333; Sn: 0.3333
mp-1220738,Nb2GaNi3,"Ga, Nb, Ni",3,0.020976291199377606,Hexagonal,194,P6_3/mmc,0.0,True,True,0.138924439894498,Nb: 0.3333; Ga: 0.1667; Ni: 0.5000
mp-1019279,SrZnSn,"Sn, Sr, Zn",3,0.0,Hexagonal,194,P6_3/mmc,0.0,False,True,0.4224531532213562,Sr: 0.3333; Zn: 0.3333; Sn: 0.3333
mp-1019087,CaSnHg,"Ca, Hg, Sn",3,0.06873256333333622,Hexagonal,194,P6_3/mmc,0.0,False,True,0.4622649552895924,Ca: 0.3333; Sn: 0.3333; Hg: 0.3333
mp-1207274,LiGaIr,"Ga, Ir, Li",3,0.0,Hexagonal,194,P6_3/mmc,0.0,True,True,0.5087457343528516,Li: 0.3333; Ga: 0.3333; Ir: 0.3333
mp-1211673,Li7Mg8Zn9,"Li, Mg, Zn",3,0.0,Hexagonal,194,P6_3/mmc,0.0,True,True,0.2722791536273021,Li: 0.2917; Mg: 0.3333; Zn: 0.3750
mp-1218034,Ta2V3Cu,"Cu, Ta, V",3,0.05079110916667062,Hexagonal,194,P6_3/mmc,0.0,True,True,0.1333437495931307,Ta: 0.3333; V: 0.5000; Cu: 0.1667
mp-569218,Ba3Al3Ga2,"Al, Ba, Ga",3,0.0,Hexagonal,194,P6_3/mmc,0.0,False,True,0.39496835316263,Ba: 0.3750; Al: 0.3750; Ga: 0.2500
mp-1072286,YSnAu,"Au, Sn, Y",3,0.08963306500000101,Hexagonal,194,P6_3/mmc,0.0,False,True,0.5402057221302106,Y: 0.3333; Sn: 0.3333; Au: 0.3333
mp-1018714,HfGaCu,"Cu, Ga, Hf",3,0.0,Hexagonal,194,P6_3/mmc,0.0,False,True,0.26419689627245807,Hf: 0.3333; Ga: 0.3333; Cu: 0.3333
mp-13218,YMg2Cu9,"Cu, Mg, Y",3,0.0,Hexagonal,194,P6_3/mmc,0.0,False,True,0.26930466018990457,Y: 0.0833; Mg: 0.1667; Cu: 0.7500
mp-1214568,Ba4(Sn3Bi)3,"Ba, Bi, Sn",3,0.0,Hexagonal,194,P6_3/mmc,0.0,True,True,0.5428109707808051,Ba: 0.5000; Sn: 0.3750; Bi: 0.1250
mp-11819,BaSnHg,"Ba, Hg, Sn",3,0.0,Hexagonal,194,P6_3/mmc,0.0,False,True,0.5140903509003927,Ba: 0.3333; Sn: 0.3333; Hg: 0.3333
mp-16481,TiAlAu,"Al, Au, Ti",3,0.0,Hexagonal,194,P6_3/mmc,0.0,False,True,0.45580210130664767,Ti: 0.3333; Al: 0.3333; Au: 0.3333
mp-1193558,Hf9FeMo4,"Fe, Hf, Mo",3,0.0,Hexagonal,194,P6_3/mmc,0.0,False,True,0.3885431975038691,Hf: 0.6429; Fe: 0.0714; Mo: 0.2857
mp-20879,CaHgPb,"Ca, Hg, Pb",3,0.07629722083333279,Hexagonal,194,P6_3/mmc,0.0,False,True,0.5654693232665726,Ca: 0.3333; Hg: 0.3333; Pb: 0.3333
mp-1192978,CsK7Rb5,"Cs, K, Rb",3,0.03413230746883267,Hexagonal,194,P6_3/mmc,0.0,True,True,0.007994080650317873,Cs: 0.0769; K: 0.5385; Rb: 0.3846
mp-1200648,Y2Ga3Fe14,"Fe, Ga, Y",3,0.07252537500000056,Hexagonal,194,P6_3/mmc,0.0,False,True,0.18626077094290083,Y: 0.1053; Ga: 0.1579; Fe: 0.7368
mp-1018758,LaZnIn,"In, La, Zn",3,0.0,Hexagonal,194,P6_3/mmc,0.0,False,True,0.2947315162426079,La: 0.3333; Zn: 0.3333; In: 0.3333
mp-1192784,Hf9CoW4,"Co, Hf, W",3,0.010175165714279899,Hexagonal,194,P6_3/mmc,0.0,False,True,0.47594588956720524,Hf: 0.6429; Co: 0.0714; W: 0.2857
mp-1227417,Ca2MgAg3,"Ag, Ca, Mg",3,0.023953438333331523,Hexagonal,194,P6_3/mmc,0.0,True,True,0.4260542479804916,Ca: 0.3333; Mg: 0.1667; Ag: 0.5000
mp-1199930,Y2Co14Cu3,"Co, Cu, Y",3,0.08025629126314726,Hexagonal,194,P6_3/mmc,0.0,False,True,0.20375967594243516,Y: 0.1053; Co: 0.7368; Cu: 0.1579
mp-20190,LaZnSn,"La, Sn, Zn",3,0.0,Hexagonal,194,P6_3/mmc,0.0,False,True,0.35562152165844324,La: 0.3333; Zn: 0.3333; Sn: 0.3333
mp-10911,Sc2Al3Ru,"Al, Ru, Sc",3,0.0,Hexagonal,194,P6_3/mmc,0.0,False,True,0.28040149785619906,Sc: 0.3333; Al: 0.5000; Ru: 0.1667
mp-570713,TiAlPt,"Al, Pt, Ti",3,0.0,Hexagonal,194,P6_3/mmc,0.0,False,True,0.3335665850571166,Ti: 0.3333; Al: 0.3333; Pt: 0.3333
mp-1072794,CaZnPb,"Ca, Pb, Zn",3,0.043508204999999744,Hexagonal,194,P6_3/mmc,0.0,False,True,0.5430162674051917,Ca: 0.3333; Zn: 0.3333; Pb: 0.3333
mp-31145,BaCuBi,"Ba, Bi, Cu",3,0.04107070871794871,Hexagonal,194,P6_3/mmc,0.0,False,True,0.506776303927307,Ba: 0.3333; Cu: 0.3333; Bi: 0.3333
mp-1194204,Hf9FeRe4,"Fe, Hf, Re",3,0.0,Hexagonal,194,P6_3/mmc,0.0,False,True,0.2812844083260693,Hf: 0.6429; Fe: 0.0714; Re: 0.2857
mp-22941,CaCuBi,"Bi, Ca, Cu",3,0.05354481027777558,Hexagonal,194,P6_3/mmc,0.0,False,True,0.45519226706964167,Ca: 0.3333; Cu: 0.3333; Bi: 0.3333
mp-510311,BaZnPb,"Ba, Pb, Zn",3,0.020344268141026856,Hexagonal,194,P6_3/mmc,0.0,False,True,0.588179866669674,Ba: 0.3333; Zn: 0.3333; Pb: 0.3333
mp-1206281,LiAlAu,"Al, Au, Li",3,0.09991116285714341,Hexagonal,194,P6_3/mmc,0.0,True,True,0.6407807737440318,Li: 0.3333; Al: 0.3333; Au: 0.3333
mp-30492,Na2CdSn,"Cd, Na, Sn",3,0.0,Hexagonal,194,P6_3/mmc,0.0,False,True,0.45756830091255224,Na: 0.5000; Cd: 0.2500; Sn: 0.2500
mp-1207369,LiGaPt,"Ga, Li, Pt",3,0.027158743333333568,Hexagonal,194,P6_3/mmc,0.0,True,True,0.5374631770332425,Li: 0.3333; Ga: 0.3333; Pt: 0.3333
mp-1200452,Y2Al2Co15,"Al, Co, Y",3,0.05717784951416949,Hexagonal,194,P6_3/mmc,0.0,False,True,0.20962570521786833,Y: 0.1053; Al: 0.1053; Co: 0.7895
mp-3479,CaAl9Ni,"Al, Ca, Ni",3,0.0,Hexagonal,194,P6_3/mmc,0.0,False,True,0.2030144724719345,Ca: 0.0909; Al: 0.8182; Ni: 0.0909
mp-1204905,Y2Al3Co14,"Al, Co, Y",3,0.06122241427125363,Hexagonal,194,P6_3/mmc,0.0,False,True,0.21164963469620257,Y: 0.1053; Al: 0.1579; Co: 0.7368
mp-12815,Na2LiAu3,"Au, Li, Na",3,0.0,Hexagonal,194,P6_3/mmc,0.0,False,True,0.7968409851128112,Na: 0.3333; Li: 0.1667; Au: 0.5000
mp-510643,LaMg2Cu9,"Cu, La, Mg",3,0.0,Hexagonal,194,P6_3/mmc,0.0,False,True,0.2900431002454635,La: 0.0833; Mg: 0.1667; Cu: 0.7500
mp-1193183,Hf9Re4Ni,"Hf, Ni, Re",3,0.0,Hexagonal,194,P6_3/mmc,0.0,False,True,0.2884626739904389,Hf: 0.6429; Re: 0.2857; Ni: 0.0714
mp-1078372,Na2MgPb,"Mg, Na, Pb",3,0.0,Hexagonal,194,P6_3/mmc,0.0,False,True,0.5727783166286936,Na: 0.5000; Mg: 0.2500; Pb: 0.2500
mp-1207463,Zn3(SnPt)2,"Pt, Sn, Zn",3,0.0,Hexagonal,194,P6_3/mmc,0.0,True,True,0.25150745515789386,Zn: 0.6000; Sn: 0.2000; Pt: 0.2000
mp-1094707,Ca3Mg4Zn11,"Ca, Mg, Zn",3,0.06384877632353003,Hexagonal,194,P6_3/mmc,0.0,True,True,0.24958051225759878,Ca: 0.1667; Mg: 0.2222; Zn: 0.6111
mp-1101813,CaGaSn,"Ca, Ga, Sn",3,0.0033867287499980137,Hexagonal,194,P6_3/mmc,0.0,False,True,0.42166337284616034,Ca: 0.3333; Ga: 0.3333; Sn: 0.3333
mp-1077351,ZrGaCu,"Cu, Ga, Zr",3,0.0,Hexagonal,194,P6_3/mmc,0.0,False,True,0.25019992006393604,Zr: 0.3333; Ga: 0.3333; Cu: 0.3333
mp-30451,SrCuBi,"Bi, Cu, Sr",3,0.034768448269231644,Hexagonal,194,P6_3/mmc,0.0,False,True,0.4786323107447813,Sr: 0.3333; Cu: 0.3333; Bi: 0.3333
mp-1018757,LaZnGa,"Ga, La, Zn",3,0.003518402500002793,Hexagonal,194,P6_3/mmc,0.0,False,True,0.30408332191467957,La: 0.3333; Zn: 0.3333; Ga: 0.3333
mp-22662,TiGaPt,"Ga, Pt, Ti",3,0.0,Hexagonal,194,P6_3/mmc,0.0,False,True,0.3057595278791633,Ti: 0.3333; Ga: 0.3333; Pt: 0.3333
mp-1215659,Zr2CoMo3,"Co, Mo, Zr",3,0.049739092916667005,Hexagonal,194,P6_3/mmc,0.0,True,True,0.37169282419163757,Zr: 0.3333; Co: 0.1667; Mo: 0.5000
mp-1215627,Zr2VRe3,"Re, V, Zr",3,0.0,Hexagonal,194,P6_3/mmc,0.0,True,True,0.2553918557824426,Zr: 0.3333; V: 0.1667; Re: 0.5000
mp-1211199,Li4(AlCu2)3,"Al, Cu, Li",3,0.008801788205127892,Hexagonal,194,P6_3/mmc,0.0,True,True,0.4171575339883786,Li: 0.5714; Al: 0.1429; Cu: 0.2857
mp-1212410,LaInNi5,"In, La, Ni",3,0.0,Hexagonal,194,P6_3/mmc,0.0,True,True,0.2794820281907812,La: 0.1429; In: 0.1429; Ni: 0.7143