material_id,formula,elements,num_elements,energy_above_hull,crystal_system,spacegroup_number,spacegroup_symbol,band_gap,theoretical,is_metal,electronegativity_difference,atomic_concentrations
mp-17871,Ca(Al4Co)2,"Al, Ca, Co",3,0.0,Orthorhombic,55,Pbam,0.0,False,True,0.26637484032009395,Ca: 0.1667; Al: 0.6667; Co: 0.1667
mp-632693,Zr5(In2Rh)2,"In, Rh, Zr",3,0.0,Orthorhombic,55,Pbam,0.0,False,True,0.33160358487205766,Zr: 0.6250; In: 0.2500; Rh: 0.1250
mp-21756,Sr(In4Rh)2,"In, Rh, Sr",3,0.0,Orthorhombic,55,Pbam,0.0,False,True,0.3917375822324599,Sr: 0.1667; In: 0.6667; Rh: 0.1667
mp-28088,Ca5(AlBi3)2,"Al, Bi, Ca",3,0.008484822179484652,Orthorhombic,55,Pbam,0.0,False,True,0.4710220041516763,Ca: 0.5556; Al: 0.1111; Bi: 0.3333
mp-980936,Y5(In2Pd)2,"In, Pd, Y",3,0.0,Orthorhombic,55,Pbam,0.0,False,True,0.3599218665210549,Y: 0.6250; In: 0.2500; Pd: 0.1250
mp-1194906,La(Al4Fe)2,"Al, Fe, La",3,0.0,Orthorhombic,55,Pbam,0.0,False,True,0.22154131794217427,La: 0.1667; Al: 0.6667; Fe: 0.1667
mp-1198298,YMnSn2,"Mn, Sn, Y",3,0.06875089947557367,Orthorhombic,55,Pbam,0.0,False,True,0.3102720580393923,Y: 0.2500; Mn: 0.2500; Sn: 0.5000
mp-1106017,La2InNi2,"In, La, Ni",3,0.0,Orthorhombic,55,Pbam,0.0,False,True,0.37857628029236057,La: 0.4000; In: 0.2000; Ni: 0.4000
mp-27262,Ca9Zn4Bi9,"Bi, Ca, Zn",3,0.0,Orthorhombic,55,Pbam,0.0,False,True,0.46446183200391156,Ca: 0.4091; Zn: 0.1818; Bi: 0.4091
mp-31278,Ca3(Bi2Pd)4,"Bi, Ca, Pd",3,0.0,Orthorhombic,55,Pbam,0.0,False,True,0.543323108288245,Ca: 0.5000; Bi: 0.3333; Pd: 0.1667
mp-607853,Na8In6Au11,"Au, In, Na",3,0.0,Orthorhombic,57,Pbcm,0.0,False,True,0.6938661542401388,Na: 0.3200; In: 0.2400; Au: 0.4400
mp-21529,La3(GaNi)2,"Ga, La, Ni",3,0.0,Orthorhombic,57,Pbcm,0.0,False,True,0.37366294972876285,La: 0.6000; Ga: 0.2000; Ni: 0.2000
mp-31479,Ca3(GaPt)2,"Ca, Ga, Pt",3,0.0,Orthorhombic,57,Pbcm,0.0,False,True,0.533081607261027,Ca: 0.6000; Ga: 0.2000; Pt: 0.2000
mp-571039,CaAlPd,"Al, Ca, Pd",3,0.0,Orthorhombic,57,Pbcm,0.0,False,True,0.48992062849223067,Ca: 0.3333; Al: 0.3333; Pd: 0.3333
mp-1211591,La3(GaRh)2,"Ga, La, Rh",3,0.0,Orthorhombic,57,Pbcm,0.0,True,True,0.4862262847687277,La: 0.6000; Ga: 0.2000; Rh: 0.2000
mp-31480,Ca3(GaPd)2,"Ca, Ga, Pd",3,0.0,Orthorhombic,57,Pbcm,0.0,False,True,0.5075588635813585,Ca: 0.6000; Ga: 0.2000; Pd: 0.2000
mp-638141,LiSn5Rh3,"Li, Rh, Sn",3,0.0,Orthorhombic,57,Pbcm,0.0,False,True,0.3752858992459475,Li: 0.1111; Sn: 0.5556; Rh: 0.3333
mp-31486,K2SnBi,"Bi, K, Sn",3,0.0,Orthorhombic,57,Pbcm,0.0,False,True,0.5853844890326357,K: 0.5000; Sn: 0.2500; Bi: 0.2500
mp-640340,Ca4MgAl3,"Al, Ca, Mg",3,0.0,Orthorhombic,57,Pbcm,0.0,False,True,0.2828316637153627,Ca: 0.5000; Mg: 0.1250; Al: 0.3750
mp-1210443,Na5(ZnSn5)2,"Na, Sn, Zn",3,0.017167318733029457,Orthorhombic,60,Pbcn,0.0,True,True,0.4945571522680711,Na: 0.4545; Zn: 0.0909; Sn: 0.4545
mp-1210474,Na5(Sn5Hg)2,"Hg, Na, Sn",3,0.016013538382349424,Orthorhombic,60,Pbcn,0.0,True,True,0.5163044140174324,Na: 0.4545; Sn: 0.4545; Hg: 0.0909
mp-1227574,Ca4Cd3Au5,"Au, Ca, Cd",3,0.0,Monoclinic,6,Pm,0.0,True,True,0.6665765564101063,Ca: 0.3333; Cd: 0.2500; Au: 0.4167
mp-675046,Rb28(Mg3In17)3,"In, Mg, Rb",3,0.0,Monoclinic,6,Pm,0.0,True,True,0.45171158871009726,Rb: 0.5833; Mg: 0.0625; In: 0.3542
mp-1216255,Y2(AlNi)5,"Al, Ni, Y",3,0.0,Monoclinic,6,Pm,0.0,True,True,0.29008619408720576,Y: 0.5000; Al: 0.2500; Ni: 0.2500
mp-1227493,Bi3Pt2Pb,"Bi, Pb, Pt",3,0.0053914802777761395,Monoclinic,6,Pm,0.0,True,True,0.1393337320568457,Bi: 0.5000; Pt: 0.3333; Pb: 0.1667
mp-1216388,Zr18Co5Sn4,"Co, Sn, Zr",3,0.0,Monoclinic,6,Pm,0.0,True,True,0.2769860321437589,Zr: 0.6667; Co: 0.1852; Sn: 0.1481
mp-1225487,K3(InAu)8,"Au, In, K",3,0.030670742819549623,Monoclinic,6,Pm,0.0,True,True,0.6990736727985113,K: 0.6000; In: 0.2000; Au: 0.2000
mp-1228603,Al3Ga3Ni10,"Al, Ga, Ni",3,0.0,Monoclinic,6,Pm,0.0,True,True,0.11456439237389593,Al: 0.1875; Ga: 0.1875; Ni: 0.6250
mp-1225844,Cu(Bi4Ir)3,"Bi, Cu, Ir",3,0.021225048541666958,Monoclinic,6,Pm,0.0,True,True,0.08774964387392128,Cu: 0.1667; Bi: 0.6667; Ir: 0.1667
mp-1227658,BaSr3Ag4,"Ag, Ba, Sr",3,0.007500831906248617,Monoclinic,6,Pm,0.0,True,True,0.4978390804265973,Ba: 0.1250; Sr: 0.3750; Ag: 0.5000
mp-1216513,V9Ga4Fe3,"Fe, Ga, V",3,0.0,Monoclinic,6,Pm,0.0,True,True,0.09377499666755534,V: 0.5625; Ga: 0.2500; Fe: 0.1875
mp-1218586,Sr3CaAg4,"Ag, Ca, Sr",3,0.011413427447916291,Monoclinic,6,Pm,0.0,True,True,0.4839921874369461,Sr: 0.3750; Ca: 0.1250; Ag: 0.5000
mp-1228028,Ba3SrAg4,"Ag, Ba, Sr",3,0.004892858968747582,Monoclinic,6,Pm,0.0,True,True,0.5128291625873084,Ba: 0.3750; Sr: 0.1250; Ag: 0.5000
mp-1218804,Sr4In17Au15,"Au, In, Sr",3,0.033906903680558376,Monoclinic,6,Pm,0.0,True,True,0.5165615185717339,Sr: 0.1111; In: 0.4722; Au: 0.4167
mp-1222586,Na3In2Bi3,"Bi, In, Na",3,0.05156221197916677,Monoclinic,6,Pm,0.0,True,True,0.49011318845752355,Na: 0.3750; In: 0.2500; Bi: 0.3750
mp-1219336,Sr10In17Au27,"Au, In, Sr",3,0.0,Monoclinic,6,Pm,0.0,True,True,0.604288060743097,Sr: 0.1852; In: 0.3148; Au: 0.5000
mp-1221266,Sc15(In5Rh2)4,"In, Rh, Sc",3,0.0,Monoclinic,6,Pm,0.0,True,True,0.29148380729871654,Sc: 0.6818; In: 0.2273; Rh: 0.0909
mp-645719,Ca4In3Au10,"Au, Ca, In",3,0.0,Orthorhombic,64,Cmce,0.0,False,True,0.6430162487789649,Ca: 0.2353; In: 0.1765; Au: 0.5882
mp-1215155,Ba21(Cd2Bi9)2,"Ba, Bi, Cd",3,0.0,Orthorhombic,64,Cmce,0.31489999999999974,True,False,0.5136556140487029,Ba: 0.6562; Cd: 0.0625; Bi: 0.2812
mp-1203938,Y2Ni7Sn3,"Ni, Sn, Y",3,0.0001953439393895806,Orthorhombic,64,Cmce,0.0,False,True,0.26356925086208366,Y: 0.1667; Ni: 0.5833; Sn: 0.2500
mp-640159,V2GaSn2,"Ga, Sn, V",3,0.0182343138333394,Orthorhombic,64,Cmce,0.0,False,True,0.1477024035010941,V: 0.4000; Ga: 0.2000; Sn: 0.4000
mp-583645,BaCaSn3,"Ba, Ca, Sn",3,0.001525398249998755,Orthorhombic,64,Cmce,0.0,False,True,0.49846163342829103,Ba: 0.2000; Ca: 0.2000; Sn: 0.6000
mp-1211389,La4Mg3Ag10,"Ag, La, Mg",3,0.0,Orthorhombic,64,Cmce,0.0,True,True,0.3702482100216305,La: 0.2353; Mg: 0.1765; Ag: 0.5882
mp-568744,Ba2Cd3Bi4,"Ba, Bi, Cd",3,0.0014474527777768031,Orthorhombic,64,Cmce,0.0,False,True,0.4354931928143703,Ba: 0.2222; Cd: 0.3333; Bi: 0.4444
mp-1200661,K(NaIn3)3,"In, K, Na",3,0.006878029432939581,Orthorhombic,64,Cmce,0.0,False,True,0.44472013671521554,K: 0.2000; Na: 0.2000; In: 0.6000
mp-1211232,LaAl3Ni2,"Al, La, Ni",3,0.0,Orthorhombic,63,Cmcm,0.0,True,True,0.2704163456597991,La: 0.1667; Al: 0.5000; Ni: 0.3333
mp-1205365,La2Zn5Sn,"La, Sn, Zn",3,0.0,Orthorhombic,63,Cmcm,0.0,False,True,0.27908052153455637,La: 0.2500; Zn: 0.6250; Sn: 0.1250
mp-1105849,La2Zn5Pb,"La, Pb, Zn",3,0.0,Orthorhombic,63,Cmcm,0.0,False,True,0.3614813273185767,La: 0.2500; Zn: 0.6250; Pb: 0.1250
mp-1190471,Ba(Sn2Ru)3,"Ba, Ru, Sn",3,0.0,Orthorhombic,63,Cmcm,0.0,False,True,0.5075123151215151,Ba: 0.2500; Sn: 0.5000; Ru: 0.2500
mp-11200,LaMg2Ni,"La, Mg, Ni",3,0.0,Orthorhombic,63,Cmcm,0.0,False,True,0.3025206604514805,La: 0.2500; Mg: 0.5000; Ni: 0.2500
mp-672336,Li5Ca7Sn11,"Ca, Li, Sn",3,0.04173740130434744,Orthorhombic,63,Cmcm,0.0,False,True,0.48376125593211866,Li: 0.2174; Ca: 0.3043; Sn: 0.4783
mp-1210648,Mg2MnGa3,"Ga, Mg, Mn",3,0.0,Orthorhombic,63,Cmcm,0.0,True,True,0.22472205054244232,Mg: 0.3333; Mn: 0.1667; Ga: 0.5000
mp-16493,YAl2Co,"Al, Co, Y",3,0.0,Orthorhombic,63,Cmcm,0.0,False,True,0.23526580712037182,Y: 0.2500; Al: 0.5000; Co: 0.2500
mp-867362,K2SrIn7,"In, K, Sr",3,0.011787258444444504,Orthorhombic,63,Cmcm,0.0,False,True,0.4214083530258982,K: 0.2000; Sr: 0.1000; In: 0.7000
mp-21352,NaIn2Au,"Au, In, Na",3,0.0,Orthorhombic,63,Cmcm,0.0,False,True,0.5696654720096699,Na: 0.2500; In: 0.5000; Au: 0.2500
mp-1209665,Rb3LiPb4,"Li, Pb, Rb",3,0.0,Orthorhombic,63,Cmcm,0.6894,True,False,0.7366308437745464,Rb: 0.3750; Li: 0.1250; Pb: 0.5000
mp-27549,K2AgBi,"Ag, Bi, K",3,0.0,Orthorhombic,63,Cmcm,0.6783000000000001,True,False,0.5783759590439422,K: 0.5000; Ag: 0.2500; Bi: 0.2500
mp-1079607,LiLaSn2,"La, Li, Sn",3,0.0,Orthorhombic,63,Cmcm,0.0,False,True,0.4619523784980439,Li: 0.2500; La: 0.2500; Sn: 0.5000
mp-1207707,Y2(Al3Ir)3,"Al, Ir, Y",3,0.0,Orthorhombic,63,Cmcm,0.0,True,True,0.32819794162805,Y: 0.3333; Al: 0.5000; Ir: 0.1667
mp-1217093,Ti2NbAl,"Al, Nb, Ti",3,0.0,Orthorhombic,63,Cmcm,0.0,True,True,0.03269174207655508,Ti: 0.5000; Nb: 0.2500; Al: 0.2500
mp-20533,SrIn2Pt,"In, Pt, Sr",3,0.0,Orthorhombic,63,Cmcm,0.0,False,True,0.4774083681713172,Sr: 0.2500; In: 0.5000; Pt: 0.2500
mp-1211948,La2(Ga3Ru)3,"Ga, La, Ru",3,0.0,Orthorhombic,63,Cmcm,0.0,True,True,0.40486280255030704,La: 0.3333; Ga: 0.5000; Ru: 0.1667
mp-3602,YAl4Ni,"Al, Ni, Y",3,0.0,Orthorhombic,63,Cmcm,0.0,False,True,0.20031225624010127,Y: 0.1667; Al: 0.6667; Ni: 0.1667
mp-1025520,BaIn2Pd,"Ba, In, Pd",3,0.0,Orthorhombic,63,Cmcm,0.0,True,True,0.4778271130858943,Ba: 0.2500; In: 0.5000; Pd: 0.2500
mp-1078435,BaCd2Pt,"Ba, Cd, Pt",3,0.0,Orthorhombic,63,Cmcm,0.0,False,True,0.4942355207793142,Ba: 0.2500; Cd: 0.5000; Pt: 0.2500
mp-11444,YGa2Ni,"Ga, Ni, Y",3,0.0,Orthorhombic,63,Cmcm,0.0,False,True,0.27298122646072204,Y: 0.2500; Ga: 0.5000; Ni: 0.2500
mp-1207775,Y2(Ga3Rh)3,"Ga, Rh, Y",3,0.0,Orthorhombic,63,Cmcm,0.0,True,True,0.37262209035727095,Y: 0.3333; Ga: 0.5000; Rh: 0.1667
mp-30432,Ba(RhPb2)3,"Ba, Pb, Rh",3,0.0,Orthorhombic,63,Cmcm,0.0,False,True,0.6166593468034032,Ba: 0.2500; Rh: 0.2500; Pb: 0.5000
mp-1080693,Cs2Bi2Pd,"Bi, Cs, Pd",3,0.0,Orthorhombic,63,Cmcm,0.4540000000000002,False,False,0.6353770534100205,Cs: 0.4000; Bi: 0.4000; Pd: 0.2000
mp-1211196,Li8CaSn7,"Ca, Li, Sn",3,0.04499426041666643,Orthorhombic,63,Cmcm,0.0,True,True,0.4850773134253961,Li: 0.5000; Ca: 0.0625; Sn: 0.4375
mp-5792,BaCuSn2,"Ba, Cu, Sn",3,0.0,Orthorhombic,63,Cmcm,0.0,False,True,0.4553226877720898,Ba: 0.2500; Cu: 0.2500; Sn: 0.5000
mp-11486,Y2(Al3Co)3,"Al, Co, Y",3,0.0,Orthorhombic,63,Cmcm,0.0,False,True,0.2358495283014151,Y: 0.3333; Al: 0.5000; Co: 0.1667
mp-12469,LaCd2Pd,"Cd, La, Pd",3,0.0,Orthorhombic,63,Cmcm,0.0,False,True,0.38942264957241507,La: 0.2500; Cd: 0.5000; Pd: 0.2500
mp-19968,CaIn2Cu,"Ca, Cu, In",3,0.03757346375000026,Orthorhombic,63,Cmcm,0.0,False,True,0.3584340943604556,Ca: 0.2500; In: 0.5000; Cu: 0.2500
mp-1078825,SrCd2Pd,"Cd, Pd, Sr",3,0.0,Orthorhombic,63,Cmcm,0.0,False,True,0.44566663550236746,Sr: 0.2500; Cd: 0.5000; Pd: 0.2500
mp-1191862,Ca2(ZnSn2)3,"Ca, Sn, Zn",3,0.06188878355614902,Orthorhombic,63,Cmcm,0.0,False,True,0.43467689149528066,Ca: 0.4000; Zn: 0.2000; Sn: 0.4000
mp-1207711,Y2(Al3Rh)3,"Al, Rh, Y",3,0.0,Orthorhombic,63,Cmcm,0.0,True,True,0.3538086425676392,Y: 0.3333; Al: 0.5000; Rh: 0.1667
mp-1025485,LaZn2Co,"Co, La, Zn",3,0.09143454250000005,Orthorhombic,63,Cmcm,0.0,True,True,0.2871410803072245,La: 0.2500; Zn: 0.5000; Co: 0.2500
mp-1211311,La2(Al3Ir)3,"Al, Ir, La",3,0.0,Orthorhombic,63,Cmcm,0.0,True,True,0.3736048120080302,La: 0.3333; Al: 0.5000; Ir: 0.1667
mp-1078700,Li2BiAu,"Au, Bi, Li",3,0.04346243875000022,Orthorhombic,63,Cmcm,0.0,True,True,0.6754998149518622,Li: 0.5000; Bi: 0.2500; Au: 0.2500
mp-1084770,K2BiAu,"Au, Bi, K",3,0.0,Orthorhombic,63,Cmcm,0.8705,False,False,0.7527947927556354,K: 0.5000; Bi: 0.2500; Au: 0.2500
mp-1080561,CaGa2Ni,"Ca, Ga, Ni",3,0.0,Orthorhombic,63,Cmcm,0.0,False,True,0.3674489760497367,Ca: 0.2500; Ga: 0.5000; Ni: 0.2500
mp-1204993,Mg19Al4Zn15,"Al, Mg, Zn",3,0.026830156771929792,Orthorhombic,63,Cmcm,0.0,True,True,0.16618999239848103,Mg: 0.5000; Al: 0.1053; Zn: 0.3947
mp-30598,SrCuSn2,"Cu, Sn, Sr",3,0.0,Orthorhombic,63,Cmcm,0.0,False,True,0.4293818230898928,Sr: 0.2500; Cu: 0.2500; Sn: 0.5000
mp-582751,Y5GaCo5,"Co, Ga, Y",3,0.0,Orthorhombic,63,Cmcm,0.0,False,True,0.3233987892053774,Y: 0.4545; Ga: 0.0909; Co: 0.4545
mp-22780,BaIn2Ir,"Ba, In, Ir",3,0.0,Orthorhombic,63,Cmcm,0.0,False,True,0.4778271130858943,Ba: 0.2500; In: 0.5000; Ir: 0.2500
mp-17370,LaSn2Rh,"La, Rh, Sn",3,0.0,Orthorhombic,63,Cmcm,0.0,False,True,0.43849173310337325,La: 0.2500; Sn: 0.5000; Rh: 0.2500
mp-13094,YAl2Ni,"Al, Ni, Y",3,0.0,Orthorhombic,63,Cmcm,0.0,False,True,0.2449872445659161,Y: 0.2500; Al: 0.5000; Ni: 0.2500
mp-1211191,Mn6Al31Cu2,"Al, Cu, Mn",3,0.03758327178501286,Orthorhombic,63,Cmcm,0.0,True,True,0.06953305326522023,Mn: 0.1538; Al: 0.7949; Cu: 0.0513
mp-20497,SrIn2Ir,"In, Ir, Sr",3,0.0,Orthorhombic,63,Cmcm,0.0,False,True,0.4536725140450985,Sr: 0.2500; In: 0.5000; Ir: 0.2500
mp-1218592,Sr3In3Ga2,"Ga, In, Sr",3,0.015615991718749722,Orthorhombic,63,Cmcm,0.0,True,True,0.4077970543052022,Sr: 0.3750; In: 0.3750; Ga: 0.2500
mp-12996,LaMg2Pd,"La, Mg, Pd",3,0.0,Orthorhombic,63,Cmcm,0.0,False,True,0.42444080859408423,La: 0.2500; Mg: 0.5000; Pd: 0.2500
mp-1079862,SrTl2Pd,"Pd, Sr, Tl",3,0.0,Orthorhombic,63,Cmcm,0.0,False,True,0.44251412406837376,Sr: 0.2500; Tl: 0.5000; Pd: 0.2500
mp-11957,CaSn2Ir,"Ca, Ir, Sn",3,0.0,Orthorhombic,63,Cmcm,0.0,False,True,0.46086874487211654,Ca: 0.2500; Sn: 0.5000; Ir: 0.2500
mp-18573,La3ZnNi3,"La, Ni, Zn",3,0.007067002619049134,Orthorhombic,63,Cmcm,0.0,False,True,0.3783746119109677,La: 0.4286; Zn: 0.1429; Ni: 0.4286
mp-605735,Sr3In4Pb,"In, Pb, Sr",3,0.013740903124999537,Orthorhombic,63,Cmcm,0.0,False,True,0.487179381747627,Sr: 0.3750; In: 0.5000; Pb: 0.1250
mp-568046,Y5Mg13Cu5,"Cu, Mg, Y",3,0.0,Orthorhombic,63,Cmcm,0.0,False,True,0.25616408375723426,Y: 0.2174; Mg: 0.5652; Cu: 0.2174
mp-1207736,Y2(Ga3Ir)3,"Ga, Ir, Y",3,0.0,Orthorhombic,63,Cmcm,0.0,True,True,0.35220338190060335,Y: 0.3333; Ga: 0.5000; Ir: 0.1667
mp-21032,BaIn2Pt,"Ba, In, Pt",3,0.0,Orthorhombic,63,Cmcm,0.0,False,True,0.5010177142576897,Ba: 0.2500; In: 0.5000; Pt: 0.2500
mp-21124,SrIn4Pt,"In, Pt, Sr",3,0.0,Orthorhombic,63,Cmcm,0.0,False,True,0.3917375822324599,Sr: 0.1667; In: 0.6667; Pt: 0.1667
mp-1207859,Y(Al5Re)2,"Al, Re, Y",3,0.0,Orthorhombic,63,Cmcm,0.0,True,True,0.18313594816475567,Y: 0.1429; Al: 0.7143; Re: 0.1429
mp-1211263,La(Al5Fe)2,"Al, Fe, La",3,0.005617298224844802,Orthorhombic,63,Cmcm,0.0,True,True,0.2058035520607366,La: 0.1429; Al: 0.7143; Fe: 0.1429
mp-1206544,SrTl2Pt,"Pt, Sr, Tl",3,0.0,Orthorhombic,63,Cmcm,0.0,True,True,0.470232655182517,Sr: 0.2500; Tl: 0.5000; Pt: 0.2500
mp-22056,YIn2Ni,"In, Ni, Y",3,0.0,Orthorhombic,63,Cmcm,0.0,False,True,0.26658722775106836,Y: 0.2500; In: 0.5000; Ni: 0.2500
mp-21367,LaIn2Pd,"In, La, Pd",3,0.0,Orthorhombic,63,Cmcm,0.0,False,True,0.3943031828428475,La: 0.2500; In: 0.5000; Pd: 0.2500
mp-1212210,K3LiPb4,"K, Li, Pb",3,0.0010387937500020428,Orthorhombic,63,Cmcm,0.6082999999999998,True,False,0.7366308437745464,K: 0.3750; Li: 0.1250; Pb: 0.5000
mp-11959,CaSn2Rh,"Ca, Rh, Sn",3,0.0,Orthorhombic,63,Cmcm,0.0,False,True,0.4799999999999999,Ca: 0.2500; Sn: 0.5000; Rh: 0.2500
mp-19991,SrIn4Pd,"In, Pd, Sr",3,0.0,Orthorhombic,63,Cmcm,0.0,False,True,0.37356019892678916,Sr: 0.1667; In: 0.6667; Pd: 0.1667
mp-680813,SrIn6Cu7,"Cu, In, Sr",3,0.0,Orthorhombic,63,Cmcm,0.0,False,True,0.2375008055840258,Sr: 0.0714; In: 0.4286; Cu: 0.5000
mp-22717,CaIn2Pd,"Ca, In, Pd",3,0.0,Orthorhombic,63,Cmcm,0.0,False,True,0.43370496884402887,Ca: 0.2500; In: 0.5000; Pd: 0.2500
mp-11958,CaSn2Pd,"Ca, Pd, Sn",3,0.0,Orthorhombic,63,Cmcm,0.0,False,True,0.46086874487211654,Ca: 0.2500; Sn: 0.5000; Pd: 0.2500
mp-1086668,LaSn2Rh,"La, Rh, Sn",3,0.03716510749999902,Orthorhombic,63,Cmcm,0.0,False,True,0.43849173310337325,La: 0.2500; Sn: 0.5000; Rh: 0.2500
mp-1209089,Sc2(Al3Co)3,"Al, Co, Sc",3,0.0,Orthorhombic,63,Cmcm,0.0,True,True,0.17752151669273467,Sc: 0.3333; Al: 0.5000; Co: 0.1667
mp-20108,CaIn4Pd,"Ca, In, Pd",3,0.008296475666668357,Orthorhombic,63,Cmcm,0.0,False,True,0.3566510900025402,Ca: 0.1667; In: 0.6667; Pd: 0.1667
mp-11431,CaGa3Ni2,"Ca, Ga, Ni",3,0.0,Orthorhombic,63,Cmcm,0.0,False,True,0.31991752409366736,Ca: 0.1667; Ga: 0.5000; Ni: 0.3333
mp-21491,Y3GaCo3,"Co, Ga, Y",3,0.0039819516666668164,Orthorhombic,63,Cmcm,0.0,False,True,0.3187795604540311,Y: 0.4286; Ga: 0.1429; Co: 0.4286
mp-1207698,Y(Al5Ru)2,"Al, Ru, Y",3,0.0,Orthorhombic,63,Cmcm,0.0,True,True,0.26578340114937693,Y: 0.1429; Al: 0.7143; Ru: 0.1429
mp-1190157,Ba3(AlPt)4,"Al, Ba, Pt",3,0.0,Orthorhombic,63,Cmcm,0.0,False,True,0.5585839238646239,Ba: 0.6000; Al: 0.2000; Pt: 0.2000
mp-1084757,LaNiSn2,"La, Ni, Sn",3,0.0,Orthorhombic,63,Cmcm,0.0,False,True,0.36574410453211675,La: 0.2500; Ni: 0.2500; Sn: 0.5000
mp-862750,SrNiSn2,"Ni, Sn, Sr",3,0.0,Orthorhombic,63,Cmcm,0.0,True,True,0.4306100323959023,Sr: 0.2500; Ni: 0.2500; Sn: 0.5000
mp-30179,Mn6Al31Ni2,"Al, Mn, Ni",3,0.03618082044379012,Orthorhombic,63,Cmcm,0.0,False,True,0.0716335183189096,Mn: 0.1538; Al: 0.7949; Ni: 0.0513
mp-1079075,YGa2Pd,"Ga, Pd, Y",3,0.0,Orthorhombic,63,Cmcm,0.0,False,True,0.350071421284286,Y: 0.2500; Ga: 0.5000; Pd: 0.2500
mp-978016,LaSn2Pd,"La, Pd, Sn",3,0.009567723874997824,Orthorhombic,63,Cmcm,0.0,False,True,0.41865857210858587,La: 0.2500; Sn: 0.5000; Pd: 0.2500
mp-1078628,Na2HgPb,"Hg, Na, Pb",3,0.036127487343748044,Orthorhombic,63,Cmcm,0.0,False,True,0.6284256121451448,Na: 0.5000; Hg: 0.2500; Pb: 0.2500
mp-1078709,Na2BiAu,"Au, Bi, Na",3,0.0,Orthorhombic,63,Cmcm,0.30699999999999994,False,False,0.6995891651533778,Na: 0.5000; Bi: 0.2500; Au: 0.2500
mp-21027,CaIn2Pt,"Ca, In, Pt",3,0.0,Orthorhombic,63,Cmcm,0.0,False,True,0.4579301256742124,Ca: 0.2500; In: 0.5000; Pt: 0.2500
mp-22017,LaIn2Ir,"In, Ir, La",3,0.0,Orthorhombic,63,Cmcm,0.0,False,True,0.3943031828428475,La: 0.2500; In: 0.5000; Ir: 0.2500
mp-11401,ScGa2Ni,"Ga, Ni, Sc",3,0.0,Orthorhombic,63,Cmcm,0.0,False,True,0.2132340263653997,Sc: 0.2500; Ga: 0.5000; Ni: 0.2500
mp-20303,LaIn4Ni,"In, La, Ni",3,0.0,Orthorhombic,63,Cmcm,0.0,False,True,0.26735847762050774,La: 0.1667; In: 0.6667; Ni: 0.1667
mp-21002,LaIn2Rh,"In, La, Rh",3,0.0,Orthorhombic,63,Cmcm,0.0,False,True,0.4196129168650554,La: 0.2500; In: 0.5000; Rh: 0.2500
mp-11078,BaIn2Rh,"Ba, In, Rh",3,0.0,Orthorhombic,63,Cmcm,0.0,False,True,0.5010177142576897,Ba: 0.2500; In: 0.5000; Rh: 0.2500
mp-1207714,Y2(Al3Pd)3,"Al, Pd, Y",3,0.0,Orthorhombic,63,Cmcm,0.0,True,True,0.32819794162805,Y: 0.3333; Al: 0.5000; Pd: 0.1667
mp-1080611,CaIn2Ni,"Ca, In, Ni",3,0.0,Orthorhombic,63,Cmcm,0.0,False,True,0.36044243645830604,Ca: 0.2500; In: 0.5000; Ni: 0.2500
mp-3034,MgAl2Cu,"Al, Cu, Mg",3,0.0,Orthorhombic,63,Cmcm,0.0,False,True,0.20861148098798393,Mg: 0.2500; Al: 0.5000; Cu: 0.2500
mp-20479,SrIn4Ni,"In, Ni, Sr",3,0.00013014083333917625,Orthorhombic,63,Cmcm,0.0,False,True,0.32252476218458365,Sr: 0.1667; In: 0.6667; Ni: 0.1667
mp-1080133,SrGa3Pd,"Ga, Pd, Sr",3,0.0,Orthorhombic,63,Cmcm,0.0,False,True,0.4117086348377941,Sr: 0.2000; Ga: 0.6000; Pd: 0.2000
mp-1079853,SrMg2Pd,"Mg, Pd, Sr",3,0.0,Orthorhombic,63,Cmcm,0.0,False,True,0.46137701503217526,Sr: 0.2500; Mg: 0.5000; Pd: 0.2500
mp-1071720,ScZnPd,"Pd, Sc, Zn",3,0.0,Orthorhombic,63,Cmcm,0.0,False,True,0.34836124290103737,Sc: 0.3333; Zn: 0.3333; Pd: 0.3333
mp-22602,CaIn2Au,"Au, Ca, In",3,0.0,Orthorhombic,63,Cmcm,0.0,False,True,0.5444951790420187,Ca: 0.2500; In: 0.5000; Au: 0.2500
mp-1211131,Mn8(Al9Zn)3,"Al, Mn, Zn",3,0.08418453502023748,Orthorhombic,63,Cmcm,0.0,True,True,0.033035708327374465,Mn: 0.4444; Al: 0.5000; Zn: 0.0556
mp-569071,La5Al3Ni2,"Al, La, Ni",3,0.0,Orthorhombic,63,Cmcm,0.0,False,True,0.33170016581243966,La: 0.5000; Al: 0.3000; Ni: 0.2000
mp-542537,SrIn2Rh,"In, Rh, Sr",3,0.0,Orthorhombic,63,Cmcm,0.0,False,True,0.4774083681713172,Sr: 0.2500; In: 0.5000; Rh: 0.2500
mp-21625,Y2(Ga3Co)3,"Co, Ga, Y",3,0.0,Orthorhombic,63,Cmcm,0.0,False,True,0.2874456470360962,Y: 0.3333; Ga: 0.5000; Co: 0.1667
mp-1207878,Y2(Ga3Ru)3,"Ga, Ru, Y",3,0.0,Orthorhombic,63,Cmcm,0.0,True,True,0.35220338190060335,Y: 0.3333; Ga: 0.5000; Ru: 0.1667
mp-1095535,YGa4Ni,"Ga, Ni, Y",3,0.0,Orthorhombic,63,Cmcm,0.0,False,True,0.23024745142756498,Y: 0.1667; Ga: 0.6667; Ni: 0.1667
mp-21024,SrIn2Pd,"In, Pd, Sr",3,0.0,Orthorhombic,63,Cmcm,0.0,False,True,0.4536725140450985,Sr: 0.2500; In: 0.5000; Pd: 0.2500
mp-571074,Y5Mg16Cu5,"Cu, Mg, Y",3,0.0012613357692328186,Orthorhombic,63,Cmcm,0.0,False,True,0.24342234463956358,Y: 0.1923; Mg: 0.6154; Cu: 0.1923
mp-1101789,CaGa3Co2,"Ca, Co, Ga",3,0.0,Orthorhombic,63,Cmcm,0.0,False,True,0.3138692225894232,Ca: 0.1667; Ga: 0.5000; Co: 0.3333
mp-1213704,Cs3LiPb4,"Cs, Li, Pb",3,0.0,Orthorhombic,63,Cmcm,0.7565,True,False,0.7485141531728041,Cs: 0.3750; Li: 0.1250; Pb: 0.5000