material_id,formula,elements,num_elements,energy_above_hull,crystal_system,spacegroup_number,spacegroup_symbol,band_gap,theoretical,is_metal,electronegativity_difference,atomic_concentrations
mp-865603,Y2IrRh,"Ir, Rh, Y",3,0.0,Cubic,225,Fm-3m,0.0,True,True,0.5107837115648853,Y: 0.5000; Ir: 0.2500; Rh: 0.2500
mp-1188014,ZrScRu2,"Ru, Sc, Zr",3,0.0,Cubic,225,Fm-3m,0.0,True,True,0.42763155870445296,Zr: 0.2500; Sc: 0.2500; Ru: 0.5000
mp-1186222,NbGaOs2,"Ga, Nb, Os",3,0.0,Cubic,225,Fm-3m,0.0,True,True,0.2583964976542833,Nb: 0.2500; Ga: 0.2500; Os: 0.5000
mp-865041,HfScRh2,"Hf, Rh, Sc",3,0.0,Cubic,225,Fm-3m,0.0,True,True,0.4754734482597318,Hf: 0.2500; Sc: 0.2500; Rh: 0.5000
mp-1183273,Ba2NaIn,"Ba, In, Na",3,0.018505106905173818,Cubic,225,Fm-3m,0.0,True,True,0.379958879354069,Ba: 0.5000; Na: 0.2500; In: 0.2500
mp-1185769,Mg2NiIr,"Ir, Mg, Ni",3,0.04735366566063526,Cubic,225,Fm-3m,0.0,True,True,0.38635314156869494,Mg: 0.5000; Ni: 0.2500; Ir: 0.2500
mp-865890,Li2CaIn,"Ca, In, Li",3,0.0,Cubic,225,Fm-3m,0.0,True,True,0.3436204301260331,Li: 0.5000; Ca: 0.2500; In: 0.2500
mp-977361,ZnFeRh2,"Fe, Rh, Zn",3,0.0,Cubic,225,Fm-3m,0.0,True,True,0.2773986301336039,Zn: 0.2500; Fe: 0.2500; Rh: 0.5000
mp-867847,La2ZnRu,"La, Ru, Zn",3,0.05896442714285666,Cubic,225,Fm-3m,0.0,True,True,0.4560359086738675,La: 0.5000; Zn: 0.2500; Ru: 0.2500
mp-862673,LiY2Ru,"Li, Ru, Y",3,0.0,Cubic,225,Fm-3m,0.0,True,True,0.46933463541486053,Li: 0.2500; Y: 0.5000; Ru: 0.2500
mp-978261,MnBe2Co,"Be, Co, Mn",3,0.004891544008621018,Cubic,225,Fm-3m,0.0,True,True,0.13736356867816146,Mn: 0.2500; Be: 0.5000; Co: 0.2500
mp-867146,ScNbRu2,"Nb, Ru, Sc",3,0.0,Cubic,225,Fm-3m,0.0,True,True,0.36986484017813864,Sc: 0.2500; Nb: 0.2500; Ru: 0.5000
mp-865092,MgGaNi2,"Ga, Mg, Ni",3,0.0,Cubic,225,Fm-3m,0.0,True,True,0.24874685927665494,Mg: 0.2500; Ga: 0.2500; Ni: 0.5000
mp-1193532,Ti6Ga16Pt7,"Ga, Pt, Ti",3,0.08236950781609398,Cubic,225,Fm-3m,0.0,False,True,0.25512208264109476,Ti: 0.2069; Ga: 0.5517; Pt: 0.2414
mp-1185432,LiZnCd2,"Cd, Li, Zn",3,0.024179960833329517,Cubic,225,Fm-3m,0.0,True,True,0.30210718296657557,Li: 0.2500; Zn: 0.2500; Cd: 0.5000
mp-10884,AlFeCo2,"Al, Co, Fe",3,0.0,Cubic,225,Fm-3m,0.0,False,True,0.11157956802210692,Al: 0.2500; Fe: 0.2500; Co: 0.5000
mp-867204,LiCd2Ag,"Ag, Cd, Li",3,0.0,Cubic,225,Fm-3m,0.0,True,True,0.3558352849282937,Li: 0.2500; Cd: 0.5000; Ag: 0.2500
mp-3340,TaAlCo2,"Al, Co, Ta",3,0.0,Cubic,225,Fm-3m,0.0,False,True,0.16708904811506942,Ta: 0.2500; Al: 0.2500; Co: 0.5000
mp-1185304,LiAlZn2,"Al, Li, Zn",3,0.0016959008333321535,Cubic,225,Fm-3m,0.0,True,True,0.28481353549296073,Li: 0.2500; Al: 0.2500; Zn: 0.5000
mp-862704,ScZn2Pt,"Pt, Sc, Zn",3,0.05077385671875234,Cubic,225,Fm-3m,0.0,True,True,0.3361919094802847,Sc: 0.2500; Zn: 0.5000; Pt: 0.2500
mp-1187464,TiAlIr2,"Al, Ir, Ti",3,0.0005003100000031679,Cubic,225,Fm-3m,0.0,True,True,0.31347846816009556,Ti: 0.2500; Al: 0.2500; Ir: 0.5000
mp-972925,ScZn2Au,"Au, Sc, Zn",3,0.022992730986842957,Cubic,225,Fm-3m,0.0,True,True,0.4433395989532178,Sc: 0.2500; Zn: 0.5000; Au: 0.2500
mp-7243,LiSnPd2,"Li, Pd, Sn",3,0.0,Cubic,225,Fm-3m,0.0,False,True,0.5032643440578719,Li: 0.2500; Sn: 0.2500; Pd: 0.5000
mp-867222,LiCa2Ir,"Ca, Ir, Li",3,0.01924372333333224,Cubic,225,Fm-3m,0.0,True,True,0.522565785332335,Li: 0.2500; Ca: 0.5000; Ir: 0.2500
mp-568917,LaInAg2,"Ag, In, La",3,0.0,Cubic,225,Fm-3m,0.0,False,True,0.34325646388669795,La: 0.2500; In: 0.2500; Ag: 0.5000
mp-1183419,Be2IrRu,"Be, Ir, Ru",3,0.0,Cubic,225,Fm-3m,0.0,True,True,0.31500000000000006,Be: 0.5000; Ir: 0.2500; Ru: 0.2500
mp-1185306,LiCrRh2,"Cr, Li, Rh",3,0.0,Cubic,225,Fm-3m,0.0,True,True,0.5368426212587819,Li: 0.2500; Cr: 0.2500; Rh: 0.5000
mp-861918,Sc2TlCd,"Cd, Sc, Tl",3,0.0,Cubic,225,Fm-3m,0.0,True,True,0.1495618601114602,Sc: 0.5000; Tl: 0.2500; Cd: 0.2500
mp-865079,TiZnPd2,"Pd, Ti, Zn",3,0.0,Cubic,225,Fm-3m,0.0,True,True,0.30498975392625904,Ti: 0.2500; Zn: 0.2500; Pd: 0.5000
mp-861978,Hf2ReIr,"Hf, Ir, Re",3,0.0,Cubic,225,Fm-3m,0.0,True,True,0.3897114317029974,Hf: 0.5000; Re: 0.2500; Ir: 0.2500
mp-1184560,HfZnPd2,"Hf, Pd, Zn",3,0.0,Cubic,225,Fm-3m,0.0,True,True,0.3830388361511141,Hf: 0.2500; Zn: 0.2500; Pd: 0.5000
mp-866296,AlCuPd2,"Al, Cu, Pd",3,0.0,Cubic,225,Fm-3m,0.0,True,True,0.2449872445659162,Al: 0.2500; Cu: 0.2500; Pd: 0.5000
mp-865124,NaSr2In,"In, Na, Sr",3,0.02359369910370246,Cubic,225,Fm-3m,0.0,True,True,0.36237929024711113,Na: 0.2500; Sr: 0.5000; In: 0.2500
mp-1187125,Sr2TlIn,"In, Sr, Tl",3,0.0032780196874990786,Cubic,225,Fm-3m,0.0,True,True,0.379242666376029,Sr: 0.5000; Tl: 0.2500; In: 0.2500
mp-977564,MgScHg2,"Hg, Mg, Sc",3,0.0,Cubic,225,Fm-3m,0.0,True,True,0.33296959320634667,Mg: 0.2500; Sc: 0.2500; Hg: 0.5000
mp-864969,Mg2PdRh,"Mg, Pd, Rh",3,0.0,Cubic,225,Fm-3m,0.0,True,True,0.46585942085569115,Mg: 0.5000; Pd: 0.2500; Rh: 0.2500
mp-867799,Ca2BiAu,"Au, Bi, Ca",3,0.0,Cubic,225,Fm-3m,0.00020000000000042206,True,False,0.6658828725834597,Ca: 0.5000; Bi: 0.2500; Au: 0.2500
mp-3623,MnAlCo2,"Al, Co, Mn",3,0.0,Cubic,225,Fm-3m,0.0,False,True,0.1514925740754311,Mn: 0.2500; Al: 0.2500; Co: 0.5000
mp-4990,MnSnRh2,"Mn, Rh, Sn",3,0.0,Cubic,225,Fm-3m,0.0,False,True,0.2998645527567404,Mn: 0.2500; Sn: 0.2500; Rh: 0.5000
mp-1188021,ZrGaRh2,"Ga, Rh, Zr",3,0.0,Cubic,225,Fm-3m,0.0,True,True,0.39347808071098433,Zr: 0.2500; Ga: 0.2500; Rh: 0.5000
mp-864623,ZnCuAu2,"Au, Cu, Zn",3,0.0,Cubic,225,Fm-3m,0.0,True,True,0.3925796097608739,Zn: 0.2500; Cu: 0.2500; Au: 0.5000
mp-865107,NaMgPb2,"Mg, Na, Pb",3,0.0,Cubic,225,Fm-3m,0.0,True,True,0.6197378478034079,Na: 0.2500; Mg: 0.2500; Pb: 0.5000
mp-865793,LiSc2Rh,"Li, Rh, Sc",3,0.0,Cubic,225,Fm-3m,0.0,True,True,0.47903548929072043,Li: 0.2500; Sc: 0.5000; Rh: 0.2500
mp-865731,Li2HgPd,"Hg, Li, Pd",3,0.0,Cubic,225,Fm-3m,0.0,True,True,0.5644466316668034,Li: 0.5000; Hg: 0.2500; Pd: 0.2500
mp-867174,SrLi2Pb,"Li, Pb, Sr",3,0.0,Cubic,225,Fm-3m,0.0,True,True,0.5890246174821558,Sr: 0.2500; Li: 0.5000; Pb: 0.2500
mp-862336,Sc2IrPd,"Ir, Pd, Sc",3,0.0,Cubic,225,Fm-3m,0.0,True,True,0.42000000000000004,Sc: 0.5000; Ir: 0.2500; Pd: 0.2500
mp-21067,ScInCu2,"Cu, In, Sc",3,0.010323330000009179,Cubic,225,Fm-3m,0.0,False,True,0.22197972880423106,Sc: 0.2500; In: 0.2500; Cu: 0.5000
mp-864978,Mg2AgAu,"Ag, Au, Mg",3,0.0,Cubic,225,Fm-3m,0.0,True,True,0.5103124043171986,Mg: 0.5000; Ag: 0.2500; Au: 0.2500
mp-972879,Sc2RuAu,"Au, Ru, Sc",3,0.0,Cubic,225,Fm-3m,0.0,True,True,0.5191098149717457,Sc: 0.5000; Ru: 0.2500; Au: 0.2500
mp-864784,LiSnRh2,"Li, Rh, Sn",3,0.0,Cubic,225,Fm-3m,0.0,True,True,0.5329868666299385,Li: 0.2500; Sn: 0.2500; Rh: 0.5000
mp-979931,YNbRu2,"Nb, Ru, Y",3,0.008713050520832155,Cubic,225,Fm-3m,0.0,True,True,0.41722296197596803,Y: 0.2500; Nb: 0.2500; Ru: 0.5000
mp-866143,TiBeRh2,"Be, Rh, Ti",3,0.0,Cubic,225,Fm-3m,0.0,True,True,0.3626551392163082,Ti: 0.2500; Be: 0.2500; Rh: 0.5000
mp-866155,TiAlRu2,"Al, Ru, Ti",3,0.0,Cubic,225,Fm-3m,0.0,True,True,0.31347846816009556,Ti: 0.2500; Al: 0.2500; Ru: 0.5000
mp-974973,HfZrZn2,"Hf, Zn, Zr",3,0.018419908125000717,Cubic,225,Fm-3m,0.0,True,True,0.16783548492497044,Hf: 0.2500; Zr: 0.2500; Zn: 0.5000
mp-1184104,CuRh2Pb,"Cu, Pb, Rh",3,0.0333484833333344,Cubic,225,Fm-3m,0.0,True,True,0.17297037318569905,Cu: 0.2500; Rh: 0.5000; Pb: 0.2500
mp-1187705,Y2IrAu,"Au, Ir, Y",3,0.02864345249999989,Cubic,225,Fm-3m,0.0,True,True,0.587430846993925,Y: 0.5000; Ir: 0.2500; Au: 0.2500
mp-865537,TiMnCo2,"Co, Mn, Ti",3,0.0,Cubic,225,Fm-3m,0.0,True,True,0.167537309277665,Ti: 0.2500; Mn: 0.2500; Co: 0.5000
mp-1186887,RbNa2Bi,"Bi, Na, Rb",3,0.008732930833331487,Cubic,225,Fm-3m,0.0,True,True,0.4899234634103576,Rb: 0.2500; Na: 0.5000; Bi: 0.2500
mp-1183381,Ba2ZnIn,"Ba, In, Zn",3,0.009561917083334315,Cubic,225,Fm-3m,0.0,True,True,0.4150527074962889,Ba: 0.5000; Zn: 0.2500; In: 0.2500
mp-865231,LiScTl2,"Li, Sc, Tl",3,0.0,Cubic,225,Fm-3m,0.0,True,True,0.2620591536275732,Li: 0.2500; Sc: 0.2500; Tl: 0.5000
mp-978662,Sc6Al16Ir7,"Al, Ir, Sc",3,0.0,Cubic,225,Fm-3m,0.0,False,True,0.29787675112116724,Sc: 0.2069; Al: 0.5517; Ir: 0.2414
mp-866072,MgTaRh2,"Mg, Rh, Ta",3,0.0,Cubic,225,Fm-3m,0.0,True,True,0.44262710039038494,Mg: 0.2500; Ta: 0.2500; Rh: 0.5000
mp-1184977,Li2AgBi,"Ag, Bi, Li",3,0.009485767083332597,Cubic,225,Fm-3m,0.0,True,True,0.49851654937424095,Li: 0.5000; Ag: 0.2500; Bi: 0.2500
mp-862795,CaLaAg2,"Ag, Ca, La",3,0.0,Cubic,225,Fm-3m,0.0,True,True,0.4414181690868648,Ca: 0.2500; La: 0.2500; Ag: 0.5000
mp-30350,Li2AgSn,"Ag, Li, Sn",3,0.05791287499999953,Cubic,225,Fm-3m,0.0,False,True,0.48261656623037713,Li: 0.5000; Ag: 0.2500; Sn: 0.2500
mp-865147,Be2CuRu,"Be, Cu, Ru",3,0.0008402499999977664,Cubic,225,Fm-3m,0.0,True,True,0.2623928352680386,Be: 0.5000; Cu: 0.2500; Ru: 0.2500
mp-862536,La2CuIr,"Cu, Ir, La",3,0.07138161624999917,Cubic,225,Fm-3m,0.0,True,True,0.4866980583482946,La: 0.5000; Cu: 0.2500; Ir: 0.2500
mp-865522,YCdAu2,"Au, Cd, Y",3,0.0,Cubic,225,Fm-3m,0.0,True,True,0.5673788416922154,Y: 0.2500; Cd: 0.2500; Au: 0.5000
mp-621348,TiInAu2,"Au, In, Ti",3,0.06486772750000114,Cubic,225,Fm-3m,0.0,False,True,0.4481071300481616,Ti: 0.2500; In: 0.2500; Au: 0.5000
mp-862632,LiCa2Al,"Al, Ca, Li",3,0.0,Cubic,225,Fm-3m,0.0,True,True,0.267149302825218,Li: 0.2500; Ca: 0.5000; Al: 0.2500
mp-865066,HfInRh2,"Hf, In, Rh",3,0.0,Cubic,225,Fm-3m,0.0,True,True,0.40706264874095227,Hf: 0.2500; In: 0.2500; Rh: 0.5000
mp-864939,Hf2CuIr,"Cu, Hf, Ir",3,0.027659626136513182,Cubic,225,Fm-3m,0.0,True,True,0.3897114317029974,Hf: 0.5000; Cu: 0.2500; Ir: 0.2500
mp-866195,Li2LaTl,"La, Li, Tl",3,0.0,Cubic,225,Fm-3m,0.0,True,True,0.26438608132804575,Li: 0.5000; La: 0.2500; Tl: 0.2500
mp-1100779,ZrZnPt2,"Pt, Zn, Zr",3,0.02439097189849715,Cubic,225,Fm-3m,0.0,True,True,0.41088319508103505,Zr: 0.2500; Zn: 0.2500; Pt: 0.5000
mp-862258,Sc2ZnPt,"Pt, Sc, Zn",3,0.0,Cubic,225,Fm-3m,0.0,True,True,0.3756577564752256,Sc: 0.5000; Zn: 0.2500; Pt: 0.2500
mp-864949,MnGaRh2,"Ga, Mn, Rh",3,0.0,Cubic,225,Fm-3m,0.0,True,True,0.31376742979474453,Mn: 0.2500; Ga: 0.2500; Rh: 0.5000
mp-864909,HfAlRu2,"Al, Hf, Ru",3,0.0,Cubic,225,Fm-3m,0.0,True,True,0.3882895182721265,Hf: 0.2500; Al: 0.2500; Ru: 0.5000
mp-610190,Zr9(In2Co)7,"Co, In, Zr",3,0.0,Cubic,225,Fm-3m,0.0,False,True,0.21061253260166848,Zr: 0.7500; In: 0.1667; Co: 0.0833
mp-861935,CaSnRh2,"Ca, Rh, Sn",3,0.0,Cubic,225,Fm-3m,0.0,True,True,0.52459508194416,Ca: 0.2500; Sn: 0.2500; Rh: 0.5000
mp-31328,MnInPd2,"In, Mn, Pd",3,0.0,Cubic,225,Fm-3m,0.0,False,True,0.27958674861302,Mn: 0.2500; In: 0.2500; Pd: 0.5000
mp-977462,ZrCdAu2,"Au, Cd, Zr",3,0.0,Cubic,225,Fm-3m,0.0,True,True,0.5304950518148119,Zr: 0.2500; Cd: 0.2500; Au: 0.5000
mp-972204,V2MoRu,"Mo, Ru, V",3,0.0,Cubic,225,Fm-3m,0.0,True,True,0.27536339626028744,V: 0.5000; Mo: 0.2500; Ru: 0.2500
mp-973099,La2PdRu,"La, Pd, Ru",3,0.0677742764285707,Cubic,225,Fm-3m,0.0,True,True,0.55,La: 0.5000; Pd: 0.2500; Ru: 0.2500
mp-867769,ScZnRh2,"Rh, Sc, Zn",3,0.0,Cubic,225,Fm-3m,0.0,True,True,0.4008350658313216,Sc: 0.2500; Zn: 0.2500; Rh: 0.5000
mp-1185752,Mg2CdIr,"Cd, Ir, Mg",3,0.03421092936403536,Cubic,225,Fm-3m,0.0,True,True,0.3651284020724765,Mg: 0.5000; Cd: 0.2500; Ir: 0.2500
mp-1185325,LiCa2Pb,"Ca, Li, Pb",3,0.021662026093749454,Cubic,225,Fm-3m,0.0,True,True,0.5788512330469722,Li: 0.2500; Ca: 0.5000; Pb: 0.2500
mp-861651,Li2PdPb,"Li, Pb, Pd",3,0.07561348500000165,Cubic,225,Fm-3m,0.0,True,True,0.6441418710191102,Li: 0.5000; Pd: 0.2500; Pb: 0.2500
mp-1187874,YZnPd2,"Pd, Y, Zn",3,0.03853723031249867,Cubic,225,Fm-3m,0.0,True,True,0.41160508986162947,Y: 0.2500; Zn: 0.2500; Pd: 0.5000
mp-862703,Sc2AgAu,"Ag, Au, Sc",3,0.007804138124999582,Cubic,225,Fm-3m,0.0,True,True,0.48776915646645796,Sc: 0.5000; Ag: 0.2500; Au: 0.2500
mp-1212451,Hf6Be15Co8,"Be, Co, Hf",3,0.031825735824588364,Cubic,225,Fm-3m,0.0,True,True,0.20177629741221847,Hf: 0.2069; Be: 0.5172; Co: 0.2759
mp-21467,TiCo2Sn,"Co, Sn, Ti",3,0.0,Cubic,225,Fm-3m,0.0,False,True,0.16209565077447324,Ti: 0.2500; Co: 0.5000; Sn: 0.2500
mp-867836,LaZnAu2,"Au, La, Zn",3,0.038238573411123244,Cubic,225,Fm-3m,0.0,True,True,0.6140999511480195,La: 0.2500; Zn: 0.2500; Au: 0.5000
mp-3504,NbNi2Sn,"Nb, Ni, Sn",3,0.051920869838712136,Cubic,225,Fm-3m,0.0,False,True,0.14291605927956447,Nb: 0.2500; Ni: 0.5000; Sn: 0.2500
mp-1212450,Hf6Be15Ni8,"Be, Hf, Ni",3,0.0,Cubic,225,Fm-3m,0.0,True,True,0.21338615329062757,Hf: 0.2069; Be: 0.5172; Ni: 0.2759
mp-973089,ScTaFe2,"Fe, Sc, Ta",3,0.007106571916667193,Cubic,225,Fm-3m,0.0,True,True,0.20603397778036514,Sc: 0.2500; Ta: 0.2500; Fe: 0.5000
mp-861625,LiZnAg2,"Ag, Li, Zn",3,0.0,Cubic,225,Fm-3m,0.0,True,True,0.3881607270191048,Li: 0.2500; Zn: 0.2500; Ag: 0.5000
mp-867923,ScGaPt2,"Ga, Pt, Sc",3,0.021843295624996983,Cubic,225,Fm-3m,0.0,True,True,0.38218941638930803,Sc: 0.2500; Ga: 0.2500; Pt: 0.5000
mp-867272,LiAlCu2,"Al, Cu, Li",3,0.0,Cubic,225,Fm-3m,0.0,True,True,0.3756577564752257,Li: 0.2500; Al: 0.2500; Cu: 0.5000
mp-1185361,LiNbRu2,"Li, Nb, Ru",3,0.011685360833329383,Cubic,225,Fm-3m,0.0,True,True,0.5050495025242576,Li: 0.2500; Nb: 0.2500; Ru: 0.5000
mp-866187,Ti2ZnTc,"Tc, Ti, Zn",3,0.0,Cubic,225,Fm-3m,0.0,True,True,0.14703315952532608,Ti: 0.5000; Zn: 0.2500; Tc: 0.2500
mp-867811,TaMnRu2,"Mn, Ru, Ta",3,0.0,Cubic,225,Fm-3m,0.0,True,True,0.33796264586489444,Ta: 0.2500; Mn: 0.2500; Ru: 0.5000
mp-1185424,LiSc2Ga,"Ga, Li, Sc",3,0.02899686645833377,Cubic,225,Fm-3m,0.0,True,True,0.2939706618014798,Li: 0.2500; Sc: 0.5000; Ga: 0.2500
mp-977383,ZnPd2Au,"Au, Pd, Zn",3,0.016720051250002754,Cubic,225,Fm-3m,0.0,True,True,0.3190121471041503,Zn: 0.2500; Pd: 0.5000; Au: 0.2500
mp-865278,NbAlOs2,"Al, Nb, Os",3,0.0,Cubic,225,Fm-3m,0.0,True,True,0.297521007661644,Nb: 0.2500; Al: 0.2500; Os: 0.5000
mp-865502,YAgHg2,"Ag, Hg, Y",3,0.0,Cubic,225,Fm-3m,0.0,True,True,0.3288901792392105,Y: 0.2500; Ag: 0.2500; Hg: 0.5000
mp-5407,TiAlCo2,"Al, Co, Ti",3,0.0,Cubic,225,Fm-3m,0.0,False,True,0.15449514555480368,Ti: 0.2500; Al: 0.2500; Co: 0.5000
mp-1185248,LiYPd2,"Li, Pd, Y",3,0.035735730124997644,Cubic,225,Fm-3m,0.0,True,True,0.5565069631190611,Li: 0.2500; Y: 0.2500; Pd: 0.5000
mp-865919,MgAlAg2,"Ag, Al, Mg",3,0.0,Cubic,225,Fm-3m,0.0,True,True,0.2578274616870747,Mg: 0.2500; Al: 0.2500; Ag: 0.5000
mp-862705,AlZnIr2,"Al, Ir, Zn",3,0.0,Cubic,225,Fm-3m,0.0,True,True,0.28535066146760557,Al: 0.2500; Zn: 0.2500; Ir: 0.5000
mp-984784,Ba2ZnCd,"Ba, Cd, Zn",3,0.007584713333333992,Cubic,225,Fm-3m,0.0,True,True,0.3902563260217571,Ba: 0.5000; Zn: 0.2500; Cd: 0.2500
mp-867135,ScZnPd2,"Pd, Sc, Zn",3,0.0,Cubic,225,Fm-3m,0.0,True,True,0.3623102951890824,Sc: 0.2500; Zn: 0.2500; Pd: 0.5000
mp-864932,Mg2AgPt,"Ag, Mg, Pt",3,0.0,Cubic,225,Fm-3m,0.0,True,True,0.41631568550800474,Mg: 0.5000; Ag: 0.2500; Pt: 0.2500
mp-862723,ScTc2Mo,"Mo, Sc, Tc",3,0.049238216875002294,Cubic,225,Fm-3m,0.0,True,True,0.2913760456866693,Sc: 0.2500; Tc: 0.5000; Mo: 0.2500
mp-1186210,Nb2TcOs,"Nb, Os, Tc",3,0.0,Cubic,225,Fm-3m,0.0,True,True,0.248746859276655,Nb: 0.5000; Tc: 0.2500; Os: 0.2500
mp-867223,LiGa2Ni,"Ga, Li, Ni",3,0.004709949071427744,Cubic,225,Fm-3m,0.0,True,True,0.37605684410737694,Li: 0.2500; Ga: 0.5000; Ni: 0.2500
mp-865049,HfMgPd2,"Hf, Mg, Pd",3,0.0,Cubic,225,Fm-3m,0.0,True,True,0.4475139662625068,Hf: 0.2500; Mg: 0.2500; Pd: 0.5000
mp-861645,Ca2MgTl,"Ca, Mg, Tl",3,0.0,Cubic,225,Fm-3m,0.0,True,True,0.25703842125254356,Ca: 0.5000; Mg: 0.2500; Tl: 0.2500
mp-1185964,MgSc2Hg,"Hg, Mg, Sc",3,0.0,Cubic,225,Fm-3m,0.0,True,True,0.2850767440532461,Mg: 0.2500; Sc: 0.5000; Hg: 0.2500
mp-1186004,MnGaPd2,"Ga, Mn, Pd",3,0.016125591142243323,Cubic,225,Fm-3m,0.0,True,True,0.2757716446627536,Mn: 0.2500; Ga: 0.2500; Pd: 0.5000
mp-1187208,Ta2ReW,"Re, Ta, W",3,0.0,Cubic,225,Fm-3m,0.0,True,True,0.35450669951356345,Ta: 0.5000; Re: 0.2500; W: 0.2500
mp-862324,Sc2GaTc,"Ga, Sc, Tc",3,0.03582183000000061,Cubic,225,Fm-3m,0.0,True,True,0.24953707139421183,Sc: 0.5000; Ga: 0.2500; Tc: 0.2500
mp-865678,TiMn2V,"Mn, Ti, V",3,0.0,Cubic,225,Fm-3m,0.0,True,True,0.03631459761583481,Ti: 0.2500; Mn: 0.5000; V: 0.2500
mp-1187245,TiMo2W,"Mo, Ti, W",3,0.0,Cubic,225,Fm-3m,0.0,True,True,0.3083423422107317,Ti: 0.2500; Mo: 0.5000; W: 0.2500
mp-1184299,Ga2NiRu,"Ga, Ni, Ru",3,0.03167111591346128,Cubic,225,Fm-3m,0.0,True,True,0.15974589196595956,Ga: 0.5000; Ni: 0.2500; Ru: 0.2500
mp-1184609,Hf2CuTc,"Cu, Hf, Tc",3,0.0,Cubic,225,Fm-3m,0.0,True,True,0.29999999999999993,Hf: 0.5000; Cu: 0.2500; Tc: 0.2500
mp-977401,NbGaRu2,"Ga, Nb, Ru",3,0.0,Cubic,225,Fm-3m,0.0,True,True,0.2583964976542833,Nb: 0.2500; Ga: 0.2500; Ru: 0.5000
mp-31339,ScInPd2,"In, Pd, Sc",3,0.0,Cubic,225,Fm-3m,0.0,False,True,0.348245602987317,Sc: 0.2500; In: 0.2500; Pd: 0.5000
mp-1185366,LiMg2In,"In, Li, Mg",3,0.01800920791666627,Cubic,225,Fm-3m,0.0,True,True,0.28500000000000003,Li: 0.2500; Mg: 0.5000; In: 0.2500
mp-1185976,MnAl2Tc,"Al, Mn, Tc",3,0.019719858214288344,Cubic,225,Fm-3m,0.0,True,True,0.13645054048995184,Mn: 0.2500; Al: 0.5000; Tc: 0.2500
mp-10891,MnAlPd2,"Al, Mn, Pd",3,0.030336939267240126,Cubic,225,Fm-3m,0.0,False,True,0.310724958765787,Mn: 0.2500; Al: 0.2500; Pd: 0.5000
mp-867115,LiCd2Rh,"Cd, Li, Rh",3,0.0,Cubic,225,Fm-3m,0.0,True,True,0.4605974381170611,Li: 0.2500; Cd: 0.5000; Rh: 0.2500
mp-20481,MnSnPd2,"Mn, Pd, Sn",3,0.0,Cubic,225,Fm-3m,0.0,False,True,0.26555366689240056,Mn: 0.2500; Sn: 0.2500; Pd: 0.5000
mp-1183318,BaNaTl2,"Ba, Na, Tl",3,0.0315856596551769,Cubic,225,Fm-3m,0.0,True,True,0.3552815784698104,Ba: 0.2500; Na: 0.2500; Tl: 0.5000
mp-1212455,Hf6Be15Cu8,"Be, Cu, Hf",3,0.0,Cubic,225,Fm-3m,0.0,True,True,0.2094923369457727,Hf: 0.2069; Be: 0.5172; Cu: 0.2759
mp-30439,Ta6Be15Cu8,"Be, Cu, Ta",3,0.0,Cubic,225,Fm-3m,0.0,False,True,0.15872934809071446,Ta: 0.2069; Be: 0.5172; Cu: 0.2759
mp-20363,LiGa2Pt,"Ga, Li, Pt",3,0.0,Cubic,225,Fm-3m,0.0,False,True,0.4683481610938597,Li: 0.2500; Ga: 0.5000; Pt: 0.2500
mp-865929,Cd2PtRh,"Cd, Pt, Rh",3,0.0,Cubic,225,Fm-3m,0.0,True,True,0.29499999999999993,Cd: 0.5000; Pt: 0.2500; Rh: 0.2500
mp-862730,LiGaRh2,"Ga, Li, Rh",3,0.0,Cubic,225,Fm-3m,0.0,True,True,0.5309602150820717,Li: 0.2500; Ga: 0.2500; Rh: 0.5000
mp-867243,Sc2ZnOs,"Os, Sc, Zn",3,0.0,Cubic,225,Fm-3m,0.0,True,True,0.3429559009552103,Sc: 0.5000; Zn: 0.2500; Os: 0.2500
mp-1185102,La2ZnHg,"Hg, La, Zn",3,0.007778297499999809,Cubic,225,Fm-3m,0.0,True,True,0.383038836151114,La: 0.5000; Zn: 0.2500; Hg: 0.2500
mp-862372,Sc2RuRh,"Rh, Ru, Sc",3,0.0,Cubic,225,Fm-3m,0.0,True,True,0.440908153700972,Sc: 0.5000; Ru: 0.2500; Rh: 0.2500
mp-867149,Sr2CdSn,"Cd, Sn, Sr",3,0.0,Cubic,225,Fm-3m,0.0,True,True,0.44779320003769596,Sr: 0.5000; Cd: 0.2500; Sn: 0.2500
mp-867207,Sr2HgPb,"Hg, Pb, Sr",3,0.0,Cubic,225,Fm-3m,0.12049999999999983,True,False,0.6186022550880331,Sr: 0.5000; Hg: 0.2500; Pb: 0.2500
mp-1187087,Sr2LiCd,"Cd, Li, Sr",3,0.0064028780555558384,Cubic,225,Fm-3m,0.0,True,True,0.3163364506344471,Sr: 0.5000; Li: 0.2500; Cd: 0.2500
mp-864922,MgZnAu2,"Au, Mg, Zn",3,0.0,Cubic,225,Fm-3m,0.0,True,True,0.5434611301647985,Mg: 0.2500; Zn: 0.2500; Au: 0.5000
mp-1192877,Ti6Al16Co7,"Al, Co, Ti",3,0.008310763879311622,Cubic,225,Fm-3m,0.0,False,True,0.12665268921775003,Ti: 0.2069; Al: 0.5517; Co: 0.2414
mp-972914,Sc2AlCd,"Al, Cd, Sc",3,0.007978842500001804,Cubic,225,Fm-3m,0.0,True,True,0.14773286702694152,Sc: 0.5000; Al: 0.2500; Cd: 0.2500
mp-864955,Mn2CrCo,"Co, Cr, Mn",3,0.0,Cubic,225,Fm-3m,0.0,True,True,0.13472193585307474,Mn: 0.5000; Cr: 0.2500; Co: 0.2500
mp-973142,ScZn2Pd,"Pd, Sc, Zn",3,0.028104677261904243,Cubic,225,Fm-3m,0.0,True,True,0.30401480227120525,Sc: 0.2500; Zn: 0.5000; Pd: 0.2500
mp-862781,AlCrRu2,"Al, Cr, Ru",3,0.0,Cubic,225,Fm-3m,0.0,True,True,0.2830525569571843,Al: 0.2500; Cr: 0.2500; Ru: 0.5000
mp-867193,Sr2BiAu,"Au, Bi, Sr",3,0.0,Cubic,225,Fm-3m,0.39360000000000017,True,False,0.6899456500333921,Sr: 0.5000; Bi: 0.2500; Au: 0.2500
mp-865441,TiAlPd2,"Al, Pd, Ti",3,0.0,Cubic,225,Fm-3m,0.0,True,True,0.31347846816009556,Ti: 0.2500; Al: 0.2500; Pd: 0.5000
mp-1194195,Zr6Ga16Ir7,"Ga, Ir, Zr",3,0.0,Cubic,225,Fm-3m,0.0,False,True,0.29044105211943194,Zr: 0.2069; Ga: 0.5517; Ir: 0.2414
mp-865127,NaTl2Cd,"Cd, Na, Tl",3,0.0,Cubic,225,Fm-3m,0.0,True,True,0.31020154738492195,Na: 0.2500; Tl: 0.5000; Cd: 0.2500