material_id,formula,elements,num_elements,energy_above_hull,crystal_system,spacegroup_number,spacegroup_symbol,band_gap,theoretical,is_metal
mp-1193121,Ti6Al16Ir7,"Al, Ir, Ti",3,0.0,Cubic,225,Fm-3m,0.0,False,True
mp-865872,LiZr2Re,"Li, Re, Zr",3,0.011782068516669852,Cubic,225,Fm-3m,0.0,True,True
mp-861629,LiMnPd2,"Li, Mn, Pd",3,0.0,Cubic,225,Fm-3m,0.0,True,True
mp-1183516,Ca2AgRh,"Ag, Ca, Rh",3,0.03428524749999973,Cubic,225,Fm-3m,0.0,True,True
mp-862657,LiCuPd2,"Cu, Li, Pd",3,0.0,Cubic,225,Fm-3m,0.0,True,True
mp-1186015,MnZnPt2,"Mn, Pt, Zn",3,0.00985177500000134,Cubic,225,Fm-3m,0.0,True,True
mp-1188002,Zr2TcOs,"Os, Tc, Zr",3,0.0,Cubic,225,Fm-3m,0.0,True,True
mp-1185374,LiMgPb2,"Li, Mg, Pb",3,0.0,Cubic,225,Fm-3m,0.0,True,True
mp-865653,TiNbRe2,"Nb, Re, Ti",3,0.0,Cubic,225,Fm-3m,0.0,True,True
mp-867208,Sr2LiIn,"In, Li, Sr",3,0.015573939807692838,Cubic,225,Fm-3m,0.0,True,True
mp-977436,ZrAlRu2,"Al, Ru, Zr",3,0.0,Cubic,225,Fm-3m,0.0,True,True
mp-864988,Mn2AlCr,"Al, Cr, Mn",3,0.0,Cubic,225,Fm-3m,0.0,True,True
mp-1185454,LiScIn2,"In, Li, Sc",3,0.026789203249995452,Cubic,225,Fm-3m,0.0,True,True
mp-867163,Sr2AgPt,"Ag, Pt, Sr",3,0.06673884124999674,Cubic,225,Fm-3m,0.0,True,True
mp-865152,MgAlPd2,"Al, Mg, Pd",3,0.0,Cubic,225,Fm-3m,0.0,True,True
mp-1184976,Li2CdAg,"Ag, Cd, Li",3,0.011126892500000096,Cubic,225,Fm-3m,0.0,True,True
mp-1185014,La2MgAl,"Al, La, Mg",3,0.017585935625000992,Cubic,225,Fm-3m,0.0,True,True
mp-864670,Ta2VOs,"Os, Ta, V",3,0.0,Cubic,225,Fm-3m,0.0,True,True
mp-1183512,Ca2TlSn,"Ca, Sn, Tl",3,0.005924823749998254,Cubic,225,Fm-3m,0.0,True,True
mp-1187869,YScZn2,"Sc, Y, Zn",3,0.013767085000000456,Cubic,225,Fm-3m,0.0,True,True
mp-866165,YMgRh2,"Mg, Rh, Y",3,0.0,Cubic,225,Fm-3m,0.0,True,True
mp-867255,LiZn2Au,"Au, Li, Zn",3,0.0,Cubic,225,Fm-3m,0.0,True,True
mp-1183607,Ca2PbAu,"Au, Ca, Pb",3,0.020668900000000878,Cubic,225,Fm-3m,0.0,True,True
mp-5419,LiGa2Ir,"Ga, Ir, Li",3,0.0,Cubic,225,Fm-3m,0.0,False,True
mp-1186932,Sc2AgPt,"Ag, Pt, Sc",3,0.006450313125000662,Cubic,225,Fm-3m,0.0,True,True
mp-867927,LiVIr2,"Ir, Li, V",3,0.0,Cubic,225,Fm-3m,0.0,True,True
mp-1184055,GaFeRu2,"Fe, Ga, Ru",3,0.0,Cubic,225,Fm-3m,0.0,True,True
mp-862334,Sc2IrRh,"Ir, Rh, Sc",3,0.002684155000000743,Cubic,225,Fm-3m,0.0,True,True
mp-5159,LiGa2Pd,"Ga, Li, Pd",3,0.0,Cubic,225,Fm-3m,0.0,False,True
mp-5538,YSnPd2,"Pd, Sn, Y",3,0.0,Cubic,225,Fm-3m,0.0,False,True
mp-1184997,KRbAu2,"Au, K, Rb",3,0.012535035312496667,Cubic,225,Fm-3m,0.0947,True,False
mp-1187709,Y2ZnAu,"Au, Y, Zn",3,0.03259615500000024,Cubic,225,Fm-3m,0.0,True,True
mp-636320,TiGaFe2,"Fe, Ga, Ti",3,0.0,Cubic,225,Fm-3m,0.0,False,True
mp-864601,LiMg2Rh,"Li, Mg, Rh",3,0.0,Cubic,225,Fm-3m,0.0,True,True
mp-866115,Be2PdRh,"Be, Pd, Rh",3,0.0,Cubic,225,Fm-3m,0.0,True,True
mp-975608,Li2TlPt,"Li, Pt, Tl",3,0.020782237500000633,Cubic,225,Fm-3m,0.0,True,True
mp-867292,Ga2RuRh,"Ga, Rh, Ru",3,0.0,Cubic,225,Fm-3m,0.0,True,True
mp-861639,Ti2CoIr,"Co, Ir, Ti",3,0.0,Cubic,225,Fm-3m,0.0,True,True
mp-974642,LiAg2Pb,"Ag, Li, Pb",3,0.01602720666666624,Cubic,225,Fm-3m,0.0,True,True
mp-864788,NbInRu2,"In, Nb, Ru",3,0.0,Cubic,225,Fm-3m,0.0,True,True
mp-865515,YMgZn2,"Mg, Y, Zn",3,0.0,Cubic,225,Fm-3m,0.0,True,True
mp-865048,TiZnIr2,"Ir, Ti, Zn",3,0.0,Cubic,225,Fm-3m,0.0,True,True
mp-1232420,LiMg2Ir,"Ir, Li, Mg",3,0.0,Cubic,225,Fm-3m,0.0,True,True
mp-865518,YSnRh2,"Rh, Sn, Y",3,0.0,Cubic,225,Fm-3m,0.0,True,True
mp-867813,LiLa2Os,"La, Li, Os",3,0.04574077750000072,Cubic,225,Fm-3m,0.0,True,True
mp-1184958,Li2TlIn,"In, Li, Tl",3,0.010182938125002039,Cubic,225,Fm-3m,0.0,True,True
mp-866088,Hf2CoTc,"Co, Hf, Tc",3,0.0,Cubic,225,Fm-3m,0.0,True,True
mp-1186121,NaCd2In,"Cd, In, Na",3,0.016103461382978024,Cubic,225,Fm-3m,0.0,True,True
mp-1183690,CrGaRh2,"Cr, Ga, Rh",3,0.0,Cubic,225,Fm-3m,0.0,True,True
mp-865130,Hf2MoRh,"Hf, Mo, Rh",3,0.0,Cubic,225,Fm-3m,0.0,True,True
mp-1185428,LiTi2Ir,"Ir, Li, Ti",3,0.006038900416668547,Cubic,225,Fm-3m,0.0,True,True
mp-972238,Ti2VIr,"Ir, Ti, V",3,0.0,Cubic,225,Fm-3m,0.0,True,True
mp-5221,HfAlCo2,"Al, Co, Hf",3,0.0,Cubic,225,Fm-3m,0.0,False,True
mp-1187926,ZnAgPd2,"Ag, Pd, Zn",3,0.04222629770833519,Cubic,225,Fm-3m,0.0,True,True
mp-865123,MgGaPd2,"Ga, Mg, Pd",3,0.0,Cubic,225,Fm-3m,0.0,True,True
mp-861909,CdGaRh2,"Cd, Ga, Rh",3,0.0,Cubic,225,Fm-3m,0.0,True,True
mp-1183207,Ba2AgBi,"Ag, Ba, Bi",3,0.016990527500000407,Cubic,225,Fm-3m,0.05810000000000004,True,False
mp-4364,NbGaCo2,"Co, Ga, Nb",3,0.0,Cubic,225,Fm-3m,0.0,False,True
mp-972877,Sc2AlIr,"Al, Ir, Sc",3,0.029382904668803,Cubic,225,Fm-3m,0.0,True,True
mp-977407,Hf2ReRh,"Hf, Re, Rh",3,0.0,Cubic,225,Fm-3m,0.0,True,True
mp-866152,TiBeCo2,"Be, Co, Ti",3,0.0,Cubic,225,Fm-3m,0.0,True,True
mp-865737,Li2InSn,"In, Li, Sn",3,0.0,Cubic,225,Fm-3m,0.0,True,True
mp-979267,Ta2FeMo,"Fe, Mo, Ta",3,0.0,Cubic,225,Fm-3m,0.0,True,True
mp-1185368,LiMgIn2,"In, Li, Mg",3,0.0,Cubic,225,Fm-3m,0.0,True,True
mp-864916,Hf2TcRh,"Hf, Rh, Tc",3,0.0,Cubic,225,Fm-3m,0.0,True,True
mp-977541,Hf2TcOs,"Hf, Os, Tc",3,0.0,Cubic,225,Fm-3m,0.0,True,True
mp-1186942,Sc2GaNi,"Ga, Ni, Sc",3,0.021547459374998468,Cubic,225,Fm-3m,0.0,True,True
mp-973133,ScCuPd2,"Cu, Pd, Sc",3,0.027731918749999807,Cubic,225,Fm-3m,0.0,True,True
mp-5921,TaAlNi2,"Al, Ni, Ta",3,0.01263121712500137,Cubic,225,Fm-3m,0.0,False,True
mp-1184648,HfZrFe2,"Fe, Hf, Zr",3,0.004519357499999543,Cubic,225,Fm-3m,0.0,True,True
mp-866136,Zr6Al16Ru7,"Al, Ru, Zr",3,0.0005808895689654037,Cubic,225,Fm-3m,0.0,False,True
mp-865010,HfGaRu2,"Ga, Hf, Ru",3,0.0,Cubic,225,Fm-3m,0.0,True,True
mp-865592,Y2ZnRu,"Ru, Y, Zn",3,0.0,Cubic,225,Fm-3m,0.0,True,True
mp-865870,LiZr2Os,"Li, Os, Zr",3,0.0,Cubic,225,Fm-3m,0.0,True,True
mp-1187740,Y2MgHg,"Hg, Mg, Y",3,0.02176380499999997,Cubic,225,Fm-3m,0.0,True,True
mp-861961,TiZnRh2,"Rh, Ti, Zn",3,0.0,Cubic,225,Fm-3m,0.0,True,True
mp-3574,MnAlCu2,"Al, Cu, Mn",3,0.040840364511494975,Cubic,225,Fm-3m,0.0,False,True
mp-867807,LiYTl2,"Li, Tl, Y",3,0.0,Cubic,225,Fm-3m,0.0,True,True
mp-1185421,LiZnNi2,"Li, Ni, Zn",3,0.0,Cubic,225,Fm-3m,0.0,True,True
mp-977205,NaTl2Pd,"Na, Pd, Tl",3,0.014864715294109487,Cubic,225,Fm-3m,0.0,True,True
mp-977357,Ta2ReRu,"Re, Ru, Ta",3,0.0,Cubic,225,Fm-3m,0.0,True,True
mp-865469,Ti2MnRu,"Mn, Ru, Ti",3,0.0,Cubic,225,Fm-3m,0.0,True,True
mp-867786,ScNbOs2,"Nb, Os, Sc",3,0.0,Cubic,225,Fm-3m,0.0,True,True
mp-865100,NaInHg2,"Hg, In, Na",3,0.0,Cubic,225,Fm-3m,0.0,True,True
mp-866188,TlCdRh2,"Cd, Rh, Tl",3,0.0,Cubic,225,Fm-3m,0.0,True,True
mp-1183931,CsRbAu2,"Au, Cs, Rb",3,0.0074696575000032794,Cubic,225,Fm-3m,0.7103,True,False
mp-864991,Ca2AgPb,"Ag, Ca, Pb",3,0.0,Cubic,225,Fm-3m,0.0,True,True
mp-1194136,Ti6Ga16Co7,"Co, Ga, Ti",3,0.043132956268473244,Cubic,225,Fm-3m,0.0,False,True
mp-983362,Hf2FeTc,"Fe, Hf, Tc",3,0.0,Cubic,225,Fm-3m,0.0,True,True
mp-865247,GaFeIr2,"Fe, Ga, Ir",3,0.0,Cubic,225,Fm-3m,0.0,True,True
mp-867897,ScTaRu2,"Ru, Sc, Ta",3,0.0,Cubic,225,Fm-3m,0.0,True,True
mp-867172,SrMgTl2,"Mg, Sr, Tl",3,0.0,Cubic,225,Fm-3m,0.0,True,True
mp-867803,LiCa2Cd,"Ca, Cd, Li",3,0.0,Cubic,225,Fm-3m,0.0,True,True
mp-1186966,Sc2ZnIn,"In, Sc, Zn",3,0.009273122499999786,Cubic,225,Fm-3m,0.0,True,True
mp-865131,Hf2OsRh,"Hf, Os, Rh",3,0.0,Cubic,225,Fm-3m,0.0,True,True
mp-1184559,HfScTc2,"Hf, Sc, Tc",3,0.07873941031250276,Cubic,225,Fm-3m,0.0,True,True
mp-865888,TiSnRu2,"Ru, Sn, Ti",3,0.0,Cubic,225,Fm-3m,0.0,True,True
mp-862622,BeRu2W,"Be, Ru, W",3,0.0,Cubic,225,Fm-3m,0.0,True,True
mp-865038,HfTaTc2,"Hf, Ta, Tc",3,0.0,Cubic,225,Fm-3m,0.0,True,True
mp-1184586,Hf2CoOs,"Co, Hf, Os",3,0.0,Cubic,225,Fm-3m,0.0,True,True
mp-867127,ScCdAg2,"Ag, Cd, Sc",3,0.0,Cubic,225,Fm-3m,0.0,True,True
mp-1184005,GaCuNi2,"Cu, Ga, Ni",3,0.008674284375000951,Cubic,225,Fm-3m,0.0,True,True
mp-1186209,Nb2TcRu,"Nb, Ru, Tc",3,0.0,Cubic,225,Fm-3m,0.0,True,True
mp-1185902,MgNbOs2,"Mg, Nb, Os",3,0.030100213611108373,Cubic,225,Fm-3m,0.0,True,True
mp-1187097,Sr2PdPt,"Pd, Pt, Sr",3,0.056612417499999346,Cubic,225,Fm-3m,0.0,True,True
mp-1186772,Ta2CrRe,"Cr, Re, Ta",3,0.0,Cubic,225,Fm-3m,0.0,True,True
mp-1185360,LiMnIr2,"Ir, Li, Mn",3,0.017776398124999204,Cubic,225,Fm-3m,0.0,True,True
mp-1192479,Hf6Ga16Pd7,"Ga, Hf, Pd",3,0.04502991870689854,Cubic,225,Fm-3m,0.0,False,True
mp-867197,LiGaNi2,"Ga, Li, Ni",3,0.0,Cubic,225,Fm-3m,0.0,True,True
mp-862339,Sc2GaAg,"Ag, Ga, Sc",3,0.012685692499999845,Cubic,225,Fm-3m,0.0,True,True
mp-861954,LiTaRu2,"Li, Ru, Ta",3,0.0,Cubic,225,Fm-3m,0.0,True,True
mp-1214241,Be15(Nb3Cu4)2,"Be, Cu, Nb",3,0.0,Cubic,225,Fm-3m,0.0,True,True
mp-1184979,Li2AgPb,"Ag, Li, Pb",3,0.014386744999993706,Cubic,225,Fm-3m,0.0,True,True
mp-972119,SrCaTl2,"Ca, Sr, Tl",3,0.009532575000001486,Cubic,225,Fm-3m,0.0,True,True
mp-861900,LiGaAu2,"Au, Ga, Li",3,0.0,Cubic,225,Fm-3m,0.0,True,True
mp-867308,InCuPd2,"Cu, In, Pd",3,0.009444891249998477,Cubic,225,Fm-3m,0.0,True,True
mp-568880,YInPd2,"In, Pd, Y",3,0.0,Cubic,225,Fm-3m,0.0,False,True
mp-862947,Ba2BiAu,"Au, Ba, Bi",3,0.0,Cubic,225,Fm-3m,0.4227999999999996,True,False
mp-861893,Li2LaPb,"La, Li, Pb",3,0.0,Cubic,225,Fm-3m,0.0,True,True
mp-865094,HfNbTc2,"Hf, Nb, Tc",3,0.0,Cubic,225,Fm-3m,0.0,True,True
mp-867118,LaSnAu2,"Au, La, Sn",3,0.0,Cubic,225,Fm-3m,0.0,True,True
mp-862721,Sr2CdPb,"Cd, Pb, Sr",3,0.0,Cubic,225,Fm-3m,0.0,True,True
mp-865548,TiInCo2,"Co, In, Ti",3,0.0,Cubic,225,Fm-3m,0.0,True,True
mp-972960,La2IrAu,"Au, Ir, La",3,0.0571087125000016,Cubic,225,Fm-3m,0.0,True,True
mp-1186001,MnZnPd2,"Mn, Pd, Zn",3,0.0,Cubic,225,Fm-3m,0.0,True,True
mp-1183274,Ba2MgIn,"Ba, In, Mg",3,0.00238541177174012,Cubic,225,Fm-3m,0.0,True,True
mp-1185760,Mg2HgAu,"Au, Hg, Mg",3,0.0015440099999981527,Cubic,225,Fm-3m,0.0,True,True
mp-1187185,SrMgHg2,"Hg, Mg, Sr",3,0.005129312249998685,Cubic,225,Fm-3m,0.0,True,True
mp-867275,BeVOs2,"Be, Os, V",3,0.0,Cubic,225,Fm-3m,0.0,True,True
mp-976265,Hf2OsPd,"Hf, Os, Pd",3,0.034108613749992855,Cubic,225,Fm-3m,0.0,True,True
mp-2987,Li2MgTl,"Li, Mg, Tl",3,0.02466964500000124,Cubic,225,Fm-3m,0.0,False,True
mp-972907,Sc2AlAg,"Ag, Al, Sc",3,0.0,Cubic,225,Fm-3m,0.0,True,True
mp-1187433,Ti2MnTc,"Mn, Tc, Ti",3,0.01017455561666658,Cubic,225,Fm-3m,0.0,True,True
mp-1187725,Y2TlZn,"Tl, Y, Zn",3,0.02660976291666728,Cubic,225,Fm-3m,0.0,True,True
mp-1185662,Mg2CdAg,"Ag, Cd, Mg",3,0.0253678254166676,Cubic,225,Fm-3m,0.0,True,True
mp-1185422,LiZn2Ag,"Ag, Li, Zn",3,0.0,Cubic,225,Fm-3m,0.0,True,True
mp-982883,Na6Cd16Au7,"Au, Cd, Na",3,0.0,Cubic,225,Fm-3m,0.0,False,True
mp-1183167,AgPdAu2,"Ag, Au, Pd",3,0.0,Cubic,225,Fm-3m,0.0,True,True
mp-866024,Be2RhAu,"Au, Be, Rh",3,0.0,Cubic,225,Fm-3m,0.0,True,True
mp-1186767,Ta2NbRe,"Nb, Re, Ta",3,0.0,Cubic,225,Fm-3m,0.0,True,True
mp-11947,LiAlAg2,"Ag, Al, Li",3,0.0,Cubic,225,Fm-3m,0.0,False,True
mp-864897,Zr2CuOs,"Cu, Os, Zr",3,0.0,Cubic,225,Fm-3m,0.0,True,True
mp-861658,LiMnPt2,"Li, Mn, Pt",3,0.0,Cubic,225,Fm-3m,0.0,True,True
mp-861912,TaTiTc2,"Ta, Tc, Ti",3,0.0,Cubic,225,Fm-3m,0.0,True,True
mp-1187694,V2OsW,"Os, V, W",3,0.0,Cubic,225,Fm-3m,0.0,True,True
mp-1187428,Ti2FeRu,"Fe, Ru, Ti",3,0.016949789999999965,Cubic,225,Fm-3m,0.0,True,True
mp-1185850,MgCdPd2,"Cd, Mg, Pd",3,0.001065562500000894,Cubic,225,Fm-3m,0.0,True,True
mp-11236,MgZnAg2,"Ag, Mg, Zn",3,0.0,Cubic,225,Fm-3m,0.0,False,True
mp-1188052,ZrGaCo2,"Co, Ga, Zr",3,0.0,Cubic,225,Fm-3m,0.0,True,True
mp-1187092,Sr2MgTl,"Mg, Sr, Tl",3,0.0,Cubic,225,Fm-3m,0.0,True,True
mp-865649,Ti2TcRh,"Rh, Tc, Ti",3,0.0,Cubic,225,Fm-3m,0.0,True,True
mp-972205,V2MoOs,"Mo, Os, V",3,0.0,Cubic,225,Fm-3m,0.0,True,True
mp-867928,ScGaRh2,"Ga, Rh, Sc",3,0.0,Cubic,225,Fm-3m,0.0,True,True
mp-867812,LiAlNi2,"Al, Li, Ni",3,0.01952963520833606,Cubic,225,Fm-3m,0.0,True,True
mp-979259,V2ReMo,"Mo, Re, V",3,0.0,Cubic,225,Fm-3m,0.0,True,True
mp-1232423,Zr2CuTc,"Cu, Tc, Zr",3,0.0,Cubic,225,Fm-3m,0.0,True,True
mp-866221,HfSnRh2,"Hf, Rh, Sn",3,0.0,Cubic,225,Fm-3m,0.0,True,True
mp-866001,AlVRu2,"Al, Ru, V",3,0.0,Cubic,225,Fm-3m,0.0,True,True
mp-1186233,NbSnRu2,"Nb, Ru, Sn",3,0.0,Cubic,225,Fm-3m,0.0,True,True
mp-865494,V2CrRu,"Cr, Ru, V",3,0.011705994999999803,Cubic,225,Fm-3m,0.0,True,True
mp-864831,NbZnRh2,"Nb, Rh, Zn",3,0.0,Cubic,225,Fm-3m,0.0,True,True
mp-865484,V2CrRe,"Cr, Re, V",3,0.004517771250000635,Cubic,225,Fm-3m,0.0,True,True
mp-1186945,Sc2CuNi,"Cu, Ni, Sc",3,0.003620189999999468,Cubic,225,Fm-3m,0.0,True,True
mp-862331,La2CuRu,"Cu, La, Ru",3,0.0516998808928566,Cubic,225,Fm-3m,0.0,True,True
mp-867201,CaInHg2,"Ca, Hg, In",3,0.0046816884375004975,Cubic,225,Fm-3m,0.0,True,True
mp-3944,ZrAlNi2,"Al, Ni, Zr",3,0.0,Cubic,225,Fm-3m,0.0,False,True
mp-865948,Ti2ReRh,"Re, Rh, Ti",3,0.0,Cubic,225,Fm-3m,0.0,True,True
mp-865666,Li2TlAg,"Ag, Li, Tl",3,0.008540689999996687,Cubic,225,Fm-3m,0.0,True,True
mp-864961,Be2PdPt,"Be, Pd, Pt",3,0.0,Cubic,225,Fm-3m,0.0,True,True
mp-541047,ZrAlPd2,"Al, Pd, Zr",3,0.0,Cubic,225,Fm-3m,0.0,False,True
mp-861672,Ti2FeIr,"Fe, Ir, Ti",3,0.0,Cubic,225,Fm-3m,0.0,True,True
mp-865863,Li2TlPd,"Li, Pd, Tl",3,0.0,Cubic,225,Fm-3m,0.0,True,True
mp-862424,Sc2TcNi,"Ni, Sc, Tc",3,0.046318452812501576,Cubic,225,Fm-3m,0.0,True,True
mp-867916,ScGaIr2,"Ga, Ir, Sc",3,0.0,Cubic,225,Fm-3m,0.0,True,True
mp-1186962,Sc2ZnPd,"Pd, Sc, Zn",3,0.010097137500000741,Cubic,225,Fm-3m,0.0,True,True
mp-865665,TiReTc2,"Re, Tc, Ti",3,0.0,Cubic,225,Fm-3m,0.0,True,True
mp-984704,CaAgHg2,"Ag, Ca, Hg",3,0.04134302374999521,Cubic,225,Fm-3m,0.0,True,True
mp-862695,Al2CoRu,"Al, Co, Ru",3,0.0,Cubic,225,Fm-3m,0.0,True,True
mp-1187098,Sr2ZnPb,"Pb, Sr, Zn",3,0.020680136999999377,Cubic,225,Fm-3m,0.05420000000000025,True,False
mp-984769,CaTl2Cd,"Ca, Cd, Tl",3,0.0253574977083324,Cubic,225,Fm-3m,0.0,True,True
mp-866171,YMgAu2,"Au, Mg, Y",3,0.0,Cubic,225,Fm-3m,0.0,True,True
mp-862365,Sc2OsPd,"Os, Pd, Sc",3,0.0,Cubic,225,Fm-3m,0.0,True,True
mp-1206369,ScPd2Pb,"Pb, Pd, Sc",3,0.0,Cubic,225,Fm-3m,0.0,True,True
mp-977543,ZrInRh2,"In, Rh, Zr",3,0.0,Cubic,225,Fm-3m,0.0,True,True
mp-864895,Be2NiRh,"Be, Ni, Rh",3,0.0,Cubic,225,Fm-3m,0.0,True,True
mp-976289,NaCd2Au,"Au, Cd, Na",3,0.0265642993750006,Cubic,225,Fm-3m,0.0,True,True
mp-862362,Sc2TcPt,"Pt, Sc, Tc",3,0.03841721781250129,Cubic,225,Fm-3m,0.0,True,True
mp-862555,LiY2Al,"Al, Li, Y",3,0.0,Cubic,225,Fm-3m,0.0,True,True
mp-567981,CrGaCo2,"Co, Cr, Ga",3,0.02157659625000008,Cubic,225,Fm-3m,0.0,False,True
mp-865746,GaTc2W,"Ga, Tc, W",3,0.0,Cubic,225,Fm-3m,0.0,True,True
mp-1187770,Y2TlIn,"In, Tl, Y",3,0.003717282500002028,Cubic,225,Fm-3m,0.0,True,True
mp-865871,Li2ZnAu,"Au, Li, Zn",3,0.009050744999999694,Cubic,225,Fm-3m,0.0,True,True
mp-1187977,Zr2FeOs,"Fe, Os, Zr",3,0.008808510446431939,Cubic,225,Fm-3m,0.0,True,True
mp-30395,ScInAu2,"Au, In, Sc",3,0.00988613650000758,Cubic,225,Fm-3m,0.0,False,True
mp-865032,Mn2PtRh,"Mn, Pt, Rh",3,0.0,Cubic,225,Fm-3m,0.0,True,True
mp-867169,Sr2SnHg,"Hg, Sn, Sr",3,0.0,Cubic,225,Fm-3m,0.27170000000000005,True,False
mp-1183531,Ca2TlIn,"Ca, In, Tl",3,0.0,Cubic,225,Fm-3m,0.0,True,True
mp-977572,Hf2MnRh,"Hf, Mn, Rh",3,0.0,Cubic,225,Fm-3m,0.0,True,True
mp-1193385,Sc6Ga16Os7,"Ga, Os, Sc",3,0.024875790389805807,Cubic,225,Fm-3m,0.0,False,True
mp-1187124,Sr2TlPb,"Pb, Sr, Tl",3,0.017313429999994412,Cubic,225,Fm-3m,0.0,True,True
mp-867756,Sc2CuAu,"Au, Cu, Sc",3,0.0006946874999984587,Cubic,225,Fm-3m,0.0,True,True
mp-976598,LiHf2Ir,"Hf, Ir, Li",3,0.014170271944447421,Cubic,225,Fm-3m,0.0,True,True
mp-865928,Ti2TcPt,"Pt, Tc, Ti",3,0.0,Cubic,225,Fm-3m,0.0,True,True
mp-1187443,Ti2GaRe,"Ga, Re, Ti",3,0.01244001499999925,Cubic,225,Fm-3m,0.0,True,True
mp-1185136,LaYMg2,"La, Mg, Y",3,0.012403721250000999,Cubic,225,Fm-3m,0.0,True,True
mp-865520,YCdPd2,"Cd, Pd, Y",3,0.0,Cubic,225,Fm-3m,0.0,True,True
mp-867924,LiCdPd2,"Cd, Li, Pd",3,0.0,Cubic,225,Fm-3m,0.0,True,True
mp-1187211,Ta2RuW,"Ru, Ta, W",3,0.0,Cubic,225,Fm-3m,0.0,True,True
mp-1193200,Zr6Al7Cu16,"Al, Cu, Zr",3,0.0,Cubic,225,Fm-3m,0.0,False,True
mp-862370,Sc2PdRu,"Pd, Ru, Sc",3,0.0,Cubic,225,Fm-3m,0.0,True,True
mp-977410,NbGaFe2,"Fe, Ga, Nb",3,0.0,Cubic,225,Fm-3m,0.09050000000000047,True,False
mp-865011,Mn2NbAl,"Al, Mn, Nb",3,0.0,Cubic,225,Fm-3m,0.0,True,True
mp-862700,AlVOs2,"Al, Os, V",3,0.0,Cubic,225,Fm-3m,0.0,True,True
mp-1187240,Sr2InHg,"Hg, In, Sr",3,0.0,Cubic,225,Fm-3m,0.0,True,True
mp-864835,Hf2CoIr,"Co, Hf, Ir",3,0.06937529874999804,Cubic,225,Fm-3m,0.0,True,True
mp-1187111,Sr2ZnGa,"Ga, Sr, Zn",3,0.024140984732145654,Cubic,225,Fm-3m,0.0,True,True
mp-862737,LiHgPd2,"Hg, Li, Pd",3,0.0,Cubic,225,Fm-3m,0.0,True,True
mp-1187713,VGaOs2,"Ga, Os, V",3,0.0,Cubic,225,Fm-3m,0.0,True,True
mp-980649,TiNbRu2,"Nb, Ru, Ti",3,0.013695349999998996,Cubic,225,Fm-3m,0.0,True,True
mp-1185926,Mn2PdPt,"Mn, Pd, Pt",3,0.0,Cubic,225,Fm-3m,0.0,True,True
mp-1183459,Ca2ZnCd,"Ca, Cd, Zn",3,0.012627786250000383,Cubic,225,Fm-3m,0.0,True,True
mp-864890,Hf2FeIr,"Fe, Hf, Ir",3,0.0,Cubic,225,Fm-3m,0.0,True,True
mp-1187836,YCdRh2,"Cd, Rh, Y",3,0.017756516249998633,Cubic,225,Fm-3m,0.0,True,True
mp-1183551,CaYPd2,"Ca, Pd, Y",3,0.02162615902777887,Cubic,225,Fm-3m,0.0,True,True
mp-862485,GaCuRh2,"Cu, Ga, Rh",3,0.0,Cubic,225,Fm-3m,0.0,True,True
mp-865924,LiZrAu2,"Au, Li, Zr",3,0.0,Cubic,225,Fm-3m,0.0,True,True
mp-1185615,MgZnNi2,"Mg, Ni, Zn",3,0.01906944538194466,Cubic,225,Fm-3m,0.0,True,True
mp-864944,MnBe2Pt,"Be, Mn, Pt",3,0.0,Cubic,225,Fm-3m,0.0,True,True
mp-864976,Mg2AgIr,"Ag, Ir, Mg",3,0.011970491644738068,Cubic,225,Fm-3m,0.0,True,True
mp-1185194,La2TlIn,"In, La, Tl",3,0.003410504999997954,Cubic,225,Fm-3m,0.0,True,True
mp-972966,Sc2OsAu,"Au, Os, Sc",3,0.0031471114236119035,Cubic,225,Fm-3m,0.0,True,True
mp-862702,Sc2AgHg,"Ag, Hg, Sc",3,0.0,Cubic,225,Fm-3m,0.0,True,True
mp-1184318,Ga2RuPt,"Ga, Pt, Ru",3,0.029191243750001483,Cubic,225,Fm-3m,0.0,True,True
mp-977555,MgNbRh2,"Mg, Nb, Rh",3,0.0,Cubic,225,Fm-3m,0.0,True,True
mp-1193834,Ti6Ga16Rh7,"Ga, Rh, Ti",3,0.043440030803289176,Cubic,225,Fm-3m,0.0,False,True
mp-981365,V2ReRu,"Re, Ru, V",3,0.0,Cubic,225,Fm-3m,0.0,True,True
mp-1187200,Ta2TcRu,"Ru, Ta, Tc",3,0.0,Cubic,225,Fm-3m,0.0,True,True
mp-867801,La2AgSn,"Ag, La, Sn",3,0.02941770893749851,Cubic,225,Fm-3m,0.0,True,True
mp-867837,BeCrRu2,"Be, Cr, Ru",3,0.0,Cubic,225,Fm-3m,0.0,True,True
mp-865140,MnGaRu2,"Ga, Mn, Ru",3,0.0,Cubic,225,Fm-3m,0.0,True,True
mp-1183541,Cd2RhAu,"Au, Cd, Rh",3,0.0,Cubic,225,Fm-3m,0.0,True,True
mp-867910,LaAgAu2,"Ag, Au, La",3,0.012605053333325067,Cubic,225,Fm-3m,0.0,True,True
mp-1186141,NaMgHg2,"Hg, Mg, Na",3,0.012860590374998537,Cubic,225,Fm-3m,0.0,True,True
mp-867775,Al2NiRu,"Al, Ni, Ru",3,0.0,Cubic,225,Fm-3m,0.0,True,True
mp-864684,Hf2MoIr,"Hf, Ir, Mo",3,0.0,Cubic,225,Fm-3m,0.0,True,True
mp-22725,TiInCu2,"Cu, In, Ti",3,0.0,Cubic,225,Fm-3m,0.0,False,True
mp-977380,LiMg2Pd,"Li, Mg, Pd",3,0.0,Cubic,225,Fm-3m,0.0,True,True
mp-975897,Hf2RuRh,"Hf, Rh, Ru",3,0.014159457499999917,Cubic,225,Fm-3m,0.0,True,True
mp-865587,Y2CuRh,"Cu, Rh, Y",3,0.010462957946428375,Cubic,225,Fm-3m,0.0,True,True
mp-867147,BaNaHg2,"Ba, Hg, Na",3,0.0,Cubic,225,Fm-3m,0.0,True,True
mp-976406,MgMnPt2,"Mg, Mn, Pt",3,0.0,Cubic,225,Fm-3m,0.0,True,True
mp-973979,LiFePd2,"Fe, Li, Pd",3,0.012542315833334428,Cubic,225,Fm-3m,0.0,True,True
mp-865512,YMgCd2,"Cd, Mg, Y",3,0.0,Cubic,225,Fm-3m,0.0,True,True
mp-864671,HfAlRh2,"Al, Hf, Rh",3,0.0,Cubic,225,Fm-3m,0.0,True,True
mp-867330,Al2FeNi,"Al, Fe, Ni",3,0.02440800500000062,Cubic,225,Fm-3m,0.0,True,True
mp-977453,Ca2CdIn,"Ca, Cd, In",3,0.0,Cubic,225,Fm-3m,0.0,True,True
mp-1018074,GaFeNi2,"Fe, Ga, Ni",3,0.05217974916666801,Cubic,225,Fm-3m,0.0,True,True
mp-1188009,ZrCdAg2,"Ag, Cd, Zr",3,0.0,Cubic,225,Fm-3m,0.0,True,True
mp-1193847,Hf6Al16Co7,"Al, Co, Hf",3,0.0,Cubic,225,Fm-3m,0.0,False,True
mp-864992,MnNbRu2,"Mn, Nb, Ru",3,0.0,Cubic,225,Fm-3m,0.0,True,True
mp-1185617,MgZn2Pt,"Mg, Pt, Zn",3,0.01677200571428461,Cubic,225,Fm-3m,0.0,True,True
mp-1192828,Ca3(Cd2Pt)4,"Ca, Cd, Pt",3,0.0,Cubic,225,Fm-3m,0.0,False,True
mp-1183166,AgBiPd2,"Ag, Bi, Pd",3,0.008421775000003962,Cubic,225,Fm-3m,0.0,True,True
mp-1184580,HfZnRh2,"Hf, Rh, Zn",3,0.0,Cubic,225,Fm-3m,0.0,True,True
mp-865876,Ti2TcOs,"Os, Tc, Ti",3,0.0,Cubic,225,Fm-3m,0.0,True,True
mp-867854,Ca2ZnRh,"Ca, Rh, Zn",3,0.02117505034722278,Cubic,225,Fm-3m,0.0,True,True
mp-973170,ScCdAu2,"Au, Cd, Sc",3,0.018009839999997723,Cubic,225,Fm-3m,0.0,True,True
mp-865076,NaCd2Pt,"Cd, Na, Pt",3,0.0,Cubic,225,Fm-3m,0.0,True,True