material_id,formula,elements,num_elements,energy_above_hull,crystal_system,spacegroup_number,spacegroup_symbol,band_gap,theoretical,is_metal,electronegativity_difference,atomic_concentrations
mp-1185759,Mg17Al11Tl,"Al, Mg, Tl",3,0.013501961293103992,Monoclinic,8,Cm,0.0,True,True,0.1481747851158022,Mg: 0.5862; Al: 0.3793; Tl: 0.0345
mp-1185468,LiMg17Al11,"Al, Li, Mg",3,0.01521335502873633,Monoclinic,8,Cm,0.0,True,True,0.16554310142811737,Li: 0.0345; Mg: 0.5862; Al: 0.3793
mp-1218528,Sr3(Cd2Ga)2,"Cd, Ga, Sr",3,0.024998300555556074,Monoclinic,8,Cm,0.0,True,True,0.3920459156782532,Sr: 0.5000; Cd: 0.3333; Ga: 0.1667
mp-1227661,Ca2Zn3Ga,"Ca, Ga, Zn",3,0.0,Monoclinic,8,Cm,0.0,True,True,0.3301514803843835,Ca: 0.3333; Zn: 0.5000; Ga: 0.1667
mp-1185711,Mg16Al12Sn,"Al, Mg, Sn",3,0.019034676551725305,Monoclinic,8,Cm,0.0,True,True,0.1741635351610261,Mg: 0.5517; Al: 0.4138; Sn: 0.0345
mp-2646994,Zr4CuPd,"Cu, Pd, Zr",3,0.01647482000000089,Tetragonal,97,I422,0.0,True,True,0.3502855977627399,Zr: 0.6667; Cu: 0.1667; Pd: 0.1667
mp-1219939,PdPb4Au,"Au, Pb, Pd",3,0.010110481666664839,Tetragonal,97,I422,0.0,True,True,0.0999444290037663,Pd: 0.1667; Pb: 0.6667; Au: 0.1667
mp-1219917,PdRhPb4,"Pb, Pd, Rh",3,0.010741129166667918,Tetragonal,97,I422,0.0,True,True,0.04830458915396477,Pd: 0.1667; Rh: 0.1667; Pb: 0.6667
mp-1225052,FeCoSn4,"Co, Fe, Sn",3,0.041272525416666817,Tetragonal,97,I422,0.0,True,True,0.05155902766086004,Fe: 0.1667; Co: 0.1667; Sn: 0.6667
mp-1215379,Zr4CoNi,"Co, Ni, Zr",3,0.006031905000000393,Tetragonal,97,I422,0.0,True,True,0.266484312650649,Zr: 0.6667; Co: 0.1667; Ni: 0.1667
mp-1215371,Zr4CuNi,"Cu, Ni, Zr",3,0.015410249166667,Tetragonal,97,I422,0.0,True,True,0.2710729709055396,Zr: 0.6667; Cu: 0.1667; Ni: 0.1667
mp-1217989,Ta4CoNi,"Co, Ni, Ta",3,0.0,Tetragonal,97,I422,0.0,True,True,0.18640606809388532,Ta: 0.6667; Co: 0.1667; Ni: 0.1667
mp-1221689,MnCoSn4,"Co, Mn, Sn",3,0.024704077255747414,Tetragonal,97,I422,0.0,True,True,0.1497126878019658,Mn: 0.1667; Co: 0.1667; Sn: 0.6667
mp-1215366,Zr4FeNi,"Fe, Ni, Zr",3,0.019898161166667094,Tetragonal,97,I422,0.0,True,True,0.2556038601690775,Zr: 0.6667; Fe: 0.1667; Ni: 0.1667
mp-1221751,MnFeSn4,"Fe, Mn, Sn",3,0.02031957451149502,Tetragonal,97,I422,0.0,True,True,0.15077577170531517,Mn: 0.1667; Fe: 0.1667; Sn: 0.6667
mp-1215368,Zr4FeCo,"Co, Fe, Zr",3,0.012710010666665994,Tetragonal,97,I422,0.0,True,True,0.24790791301072523,Zr: 0.6667; Fe: 0.1667; Co: 0.1667
mp-1217228,Ti4Al11Ni,"Al, Ni, Ti",3,0.052130193828125115,Tetragonal,99,P4mm,0.0,True,True,0.08275528684017713,Ti: 0.2500; Al: 0.6875; Ni: 0.0625
mp-1223808,In2SnPb,"In, Pb, Sn",3,0.033704317916665616,Tetragonal,99,P4mm,0.0,True,True,0.2245411988923191,In: 0.5000; Sn: 0.2500; Pb: 0.2500
mp-1223239,La2Al7Cu,"Al, Cu, La",3,0.0,Tetragonal,99,P4mm,0.0,True,True,0.23473602194805976,La: 0.2000; Al: 0.7000; Cu: 0.1000
mp-1227436,Ca2Ga7Au,"Au, Ca, Ga",3,0.0,Tetragonal,99,P4mm,0.0,True,True,0.4202249397644076,Ca: 0.2000; Ga: 0.7000; Au: 0.1000
mp-1223761,La2Ga7Au,"Au, Ga, La",3,0.0,Tetragonal,99,P4mm,0.0,True,True,0.3864569833758991,La: 0.2000; Ga: 0.7000; Au: 0.1000
mp-1224480,Hf3ScGa12,"Ga, Hf, Sc",3,0.00926240687499913,Tetragonal,99,P4mm,0.0,True,True,0.21473457453330613,Hf: 0.1875; Sc: 0.0625; Ga: 0.7500
mp-1224496,Hf4ZnGa11,"Ga, Hf, Zn",3,0.011997508437499249,Tetragonal,99,P4mm,0.0,True,True,0.21844621763720243,Hf: 0.2500; Zn: 0.0625; Ga: 0.6875
mp-1215487,Zr3NbAl12,"Al, Nb, Zr",3,0.026707245000000768,Tetragonal,99,P4mm,0.0,True,True,0.109013688934005,Zr: 0.1875; Nb: 0.0625; Al: 0.7500
mp-1217109,Ti4Al11Zn,"Al, Ti, Zn",3,0.013886058125000211,Tetragonal,99,P4mm,0.0,True,True,0.033166247903554005,Ti: 0.2500; Al: 0.6875; Zn: 0.0625
mp-1221662,MnAl2Cr3,"Al, Cr, Mn",3,0.0,Tetragonal,99,P4mm,0.0,True,True,0.04031128874149269,Mn: 0.1667; Al: 0.3333; Cr: 0.5000
mp-1215384,Zr3TiCu2,"Cu, Ti, Zr",3,0.013652058333333272,Tetragonal,99,P4mm,0.0,True,True,0.2549999999999999,Zr: 0.5000; Ti: 0.1667; Cu: 0.3333