material_id,formula,elements,num_elements,energy_above_hull,crystal_system,spacegroup_number,spacegroup_symbol,band_gap,theoretical,is_metal
mp-1209665,Rb3LiPb4,"Li, Pb, Rb",3,0.0,Orthorhombic,63,Cmcm,0.6894,True,False
mp-27549,K2AgBi,"Ag, Bi, K",3,0.0,Orthorhombic,63,Cmcm,0.6783000000000001,True,False
mp-1079607,LiLaSn2,"La, Li, Sn",3,0.0,Orthorhombic,63,Cmcm,0.0,False,True
mp-1207707,Y2(Al3Ir)3,"Al, Ir, Y",3,0.0,Orthorhombic,63,Cmcm,0.0,True,True
mp-1217093,Ti2NbAl,"Al, Nb, Ti",3,0.0,Orthorhombic,63,Cmcm,0.0,True,True
mp-20533,SrIn2Pt,"In, Pt, Sr",3,0.0,Orthorhombic,63,Cmcm,0.0,False,True
mp-1211948,La2(Ga3Ru)3,"Ga, La, Ru",3,0.0,Orthorhombic,63,Cmcm,0.0,True,True
mp-3602,YAl4Ni,"Al, Ni, Y",3,0.0,Orthorhombic,63,Cmcm,0.0,False,True
mp-1025520,BaIn2Pd,"Ba, In, Pd",3,0.0,Orthorhombic,63,Cmcm,0.0,True,True
mp-1078435,BaCd2Pt,"Ba, Cd, Pt",3,0.0,Orthorhombic,63,Cmcm,0.0,False,True
mp-11444,YGa2Ni,"Ga, Ni, Y",3,0.0,Orthorhombic,63,Cmcm,0.0,False,True
mp-1207775,Y2(Ga3Rh)3,"Ga, Rh, Y",3,0.0,Orthorhombic,63,Cmcm,0.0,True,True
mp-30432,Ba(RhPb2)3,"Ba, Pb, Rh",3,0.0,Orthorhombic,63,Cmcm,0.0,False,True
mp-1080693,Cs2Bi2Pd,"Bi, Cs, Pd",3,0.0,Orthorhombic,63,Cmcm,0.4540000000000002,False,False
mp-1211196,Li8CaSn7,"Ca, Li, Sn",3,0.04499426041666643,Orthorhombic,63,Cmcm,0.0,True,True
mp-5792,BaCuSn2,"Ba, Cu, Sn",3,0.0,Orthorhombic,63,Cmcm,0.0,False,True
mp-11486,Y2(Al3Co)3,"Al, Co, Y",3,0.0,Orthorhombic,63,Cmcm,0.0,False,True
mp-12469,LaCd2Pd,"Cd, La, Pd",3,0.0,Orthorhombic,63,Cmcm,0.0,False,True
mp-19968,CaIn2Cu,"Ca, Cu, In",3,0.03757346375000026,Orthorhombic,63,Cmcm,0.0,False,True
mp-1078825,SrCd2Pd,"Cd, Pd, Sr",3,0.0,Orthorhombic,63,Cmcm,0.0,False,True
mp-1191862,Ca2(ZnSn2)3,"Ca, Sn, Zn",3,0.06188878355614902,Orthorhombic,63,Cmcm,0.0,False,True
mp-1207711,Y2(Al3Rh)3,"Al, Rh, Y",3,0.0,Orthorhombic,63,Cmcm,0.0,True,True
mp-1025485,LaZn2Co,"Co, La, Zn",3,0.09143454250000005,Orthorhombic,63,Cmcm,0.0,True,True
mp-1211311,La2(Al3Ir)3,"Al, Ir, La",3,0.0,Orthorhombic,63,Cmcm,0.0,True,True
mp-1078700,Li2BiAu,"Au, Bi, Li",3,0.04346243875000022,Orthorhombic,63,Cmcm,0.0,True,True
mp-1084770,K2BiAu,"Au, Bi, K",3,0.0,Orthorhombic,63,Cmcm,0.8705,False,False
mp-1080561,CaGa2Ni,"Ca, Ga, Ni",3,0.0,Orthorhombic,63,Cmcm,0.0,False,True
mp-1204993,Mg19Al4Zn15,"Al, Mg, Zn",3,0.026830156771929792,Orthorhombic,63,Cmcm,0.0,True,True
mp-30598,SrCuSn2,"Cu, Sn, Sr",3,0.0,Orthorhombic,63,Cmcm,0.0,False,True
mp-582751,Y5GaCo5,"Co, Ga, Y",3,0.0,Orthorhombic,63,Cmcm,0.0,False,True
mp-22780,BaIn2Ir,"Ba, In, Ir",3,0.0,Orthorhombic,63,Cmcm,0.0,False,True
mp-17370,LaSn2Rh,"La, Rh, Sn",3,0.0,Orthorhombic,63,Cmcm,0.0,False,True
mp-13094,YAl2Ni,"Al, Ni, Y",3,0.0,Orthorhombic,63,Cmcm,0.0,False,True
mp-1211191,Mn6Al31Cu2,"Al, Cu, Mn",3,0.03758327178501286,Orthorhombic,63,Cmcm,0.0,True,True
mp-20497,SrIn2Ir,"In, Ir, Sr",3,0.0,Orthorhombic,63,Cmcm,0.0,False,True
mp-1218592,Sr3In3Ga2,"Ga, In, Sr",3,0.015615991718749722,Orthorhombic,63,Cmcm,0.0,True,True
mp-12996,LaMg2Pd,"La, Mg, Pd",3,0.0,Orthorhombic,63,Cmcm,0.0,False,True
mp-1079862,SrTl2Pd,"Pd, Sr, Tl",3,0.0,Orthorhombic,63,Cmcm,0.0,False,True
mp-11957,CaSn2Ir,"Ca, Ir, Sn",3,0.0,Orthorhombic,63,Cmcm,0.0,False,True
mp-18573,La3ZnNi3,"La, Ni, Zn",3,0.007067002619049134,Orthorhombic,63,Cmcm,0.0,False,True
mp-605735,Sr3In4Pb,"In, Pb, Sr",3,0.013740903124999537,Orthorhombic,63,Cmcm,0.0,False,True
mp-568046,Y5Mg13Cu5,"Cu, Mg, Y",3,0.0,Orthorhombic,63,Cmcm,0.0,False,True
mp-1207736,Y2(Ga3Ir)3,"Ga, Ir, Y",3,0.0,Orthorhombic,63,Cmcm,0.0,True,True
mp-21032,BaIn2Pt,"Ba, In, Pt",3,0.0,Orthorhombic,63,Cmcm,0.0,False,True
mp-21124,SrIn4Pt,"In, Pt, Sr",3,0.0,Orthorhombic,63,Cmcm,0.0,False,True
mp-1207859,Y(Al5Re)2,"Al, Re, Y",3,0.0,Orthorhombic,63,Cmcm,0.0,True,True
mp-1211263,La(Al5Fe)2,"Al, Fe, La",3,0.005617298224844802,Orthorhombic,63,Cmcm,0.0,True,True
mp-1206544,SrTl2Pt,"Pt, Sr, Tl",3,0.0,Orthorhombic,63,Cmcm,0.0,True,True
mp-22056,YIn2Ni,"In, Ni, Y",3,0.0,Orthorhombic,63,Cmcm,0.0,False,True
mp-21367,LaIn2Pd,"In, La, Pd",3,0.0,Orthorhombic,63,Cmcm,0.0,False,True
mp-1212210,K3LiPb4,"K, Li, Pb",3,0.0010387937500020428,Orthorhombic,63,Cmcm,0.6082999999999998,True,False
mp-11959,CaSn2Rh,"Ca, Rh, Sn",3,0.0,Orthorhombic,63,Cmcm,0.0,False,True
mp-19991,SrIn4Pd,"In, Pd, Sr",3,0.0,Orthorhombic,63,Cmcm,0.0,False,True
mp-680813,SrIn6Cu7,"Cu, In, Sr",3,0.0,Orthorhombic,63,Cmcm,0.0,False,True
mp-22717,CaIn2Pd,"Ca, In, Pd",3,0.0,Orthorhombic,63,Cmcm,0.0,False,True
mp-11958,CaSn2Pd,"Ca, Pd, Sn",3,0.0,Orthorhombic,63,Cmcm,0.0,False,True
mp-1086668,LaSn2Rh,"La, Rh, Sn",3,0.03716510749999902,Orthorhombic,63,Cmcm,0.0,False,True
mp-1209089,Sc2(Al3Co)3,"Al, Co, Sc",3,0.0,Orthorhombic,63,Cmcm,0.0,True,True
mp-20108,CaIn4Pd,"Ca, In, Pd",3,0.008296475666668357,Orthorhombic,63,Cmcm,0.0,False,True
mp-11431,CaGa3Ni2,"Ca, Ga, Ni",3,0.0,Orthorhombic,63,Cmcm,0.0,False,True
mp-21491,Y3GaCo3,"Co, Ga, Y",3,0.0039819516666668164,Orthorhombic,63,Cmcm,0.0,False,True
mp-1207698,Y(Al5Ru)2,"Al, Ru, Y",3,0.0,Orthorhombic,63,Cmcm,0.0,True,True
mp-1190157,Ba3(AlPt)4,"Al, Ba, Pt",3,0.0,Orthorhombic,63,Cmcm,0.0,False,True
mp-1084757,LaNiSn2,"La, Ni, Sn",3,0.0,Orthorhombic,63,Cmcm,0.0,False,True
mp-862750,SrNiSn2,"Ni, Sn, Sr",3,0.0,Orthorhombic,63,Cmcm,0.0,True,True
mp-30179,Mn6Al31Ni2,"Al, Mn, Ni",3,0.03618082044379012,Orthorhombic,63,Cmcm,0.0,False,True
mp-1079075,YGa2Pd,"Ga, Pd, Y",3,0.0,Orthorhombic,63,Cmcm,0.0,False,True
mp-978016,LaSn2Pd,"La, Pd, Sn",3,0.009567723874997824,Orthorhombic,63,Cmcm,0.0,False,True
mp-1078628,Na2HgPb,"Hg, Na, Pb",3,0.036127487343748044,Orthorhombic,63,Cmcm,0.0,False,True
mp-1078709,Na2BiAu,"Au, Bi, Na",3,0.0,Orthorhombic,63,Cmcm,0.30699999999999994,False,False
mp-21027,CaIn2Pt,"Ca, In, Pt",3,0.0,Orthorhombic,63,Cmcm,0.0,False,True
mp-22017,LaIn2Ir,"In, Ir, La",3,0.0,Orthorhombic,63,Cmcm,0.0,False,True
mp-11401,ScGa2Ni,"Ga, Ni, Sc",3,0.0,Orthorhombic,63,Cmcm,0.0,False,True
mp-20303,LaIn4Ni,"In, La, Ni",3,0.0,Orthorhombic,63,Cmcm,0.0,False,True
mp-21002,LaIn2Rh,"In, La, Rh",3,0.0,Orthorhombic,63,Cmcm,0.0,False,True
mp-11078,BaIn2Rh,"Ba, In, Rh",3,0.0,Orthorhombic,63,Cmcm,0.0,False,True
mp-1207714,Y2(Al3Pd)3,"Al, Pd, Y",3,0.0,Orthorhombic,63,Cmcm,0.0,True,True
mp-1080611,CaIn2Ni,"Ca, In, Ni",3,0.0,Orthorhombic,63,Cmcm,0.0,False,True
mp-3034,MgAl2Cu,"Al, Cu, Mg",3,0.0,Orthorhombic,63,Cmcm,0.0,False,True
mp-20479,SrIn4Ni,"In, Ni, Sr",3,0.00013014083333917625,Orthorhombic,63,Cmcm,0.0,False,True
mp-1080133,SrGa3Pd,"Ga, Pd, Sr",3,0.0,Orthorhombic,63,Cmcm,0.0,False,True
mp-1079853,SrMg2Pd,"Mg, Pd, Sr",3,0.0,Orthorhombic,63,Cmcm,0.0,False,True
mp-1071720,ScZnPd,"Pd, Sc, Zn",3,0.0,Orthorhombic,63,Cmcm,0.0,False,True
mp-22602,CaIn2Au,"Au, Ca, In",3,0.0,Orthorhombic,63,Cmcm,0.0,False,True
mp-1211131,Mn8(Al9Zn)3,"Al, Mn, Zn",3,0.08418453502023748,Orthorhombic,63,Cmcm,0.0,True,True
mp-569071,La5Al3Ni2,"Al, La, Ni",3,0.0,Orthorhombic,63,Cmcm,0.0,False,True
mp-542537,SrIn2Rh,"In, Rh, Sr",3,0.0,Orthorhombic,63,Cmcm,0.0,False,True
mp-21625,Y2(Ga3Co)3,"Co, Ga, Y",3,0.0,Orthorhombic,63,Cmcm,0.0,False,True
mp-1207878,Y2(Ga3Ru)3,"Ga, Ru, Y",3,0.0,Orthorhombic,63,Cmcm,0.0,True,True
mp-1095535,YGa4Ni,"Ga, Ni, Y",3,0.0,Orthorhombic,63,Cmcm,0.0,False,True
mp-21024,SrIn2Pd,"In, Pd, Sr",3,0.0,Orthorhombic,63,Cmcm,0.0,False,True
mp-571074,Y5Mg16Cu5,"Cu, Mg, Y",3,0.0012613357692328186,Orthorhombic,63,Cmcm,0.0,False,True
mp-1101789,CaGa3Co2,"Ca, Co, Ga",3,0.0,Orthorhombic,63,Cmcm,0.0,False,True
mp-1213704,Cs3LiPb4,"Cs, Li, Pb",3,0.0,Orthorhombic,63,Cmcm,0.7565,True,False
mp-630851,Cs3NaPb4,"Cs, Na, Pb",3,0.0,Orthorhombic,63,Cmcm,0.47540000000000004,False,False
mp-1077722,ScZnPt,"Pt, Sc, Zn",3,0.0,Orthorhombic,63,Cmcm,0.0,False,True
mp-16744,Y(Al5Fe)2,"Al, Fe, Y",3,0.0,Orthorhombic,63,Cmcm,0.0,False,True
mp-1211269,La(Al5Ru)2,"Al, La, Ru",3,0.0,Orthorhombic,63,Cmcm,0.0,True,True
mp-642428,Y3Al19Ni5,"Al, Ni, Y",3,0.00010649944444374171,Orthorhombic,63,Cmcm,0.0,True,True
mp-1106177,Ga3Ni5Sn2,"Ga, Ni, Sn",3,0.009500597404762168,Orthorhombic,63,Cmcm,0.0,False,True
mp-1211312,La2(Al3Rh)3,"Al, La, Rh",3,0.0,Orthorhombic,63,Cmcm,0.0,True,True
mp-12781,ScAl2Ni,"Al, Ni, Sc",3,0.0,Orthorhombic,63,Cmcm,0.0,False,True
mp-672194,CaIn4Ni,"Ca, In, Ni",3,0.01006665249999994,Orthorhombic,63,Cmcm,0.0,False,True
mp-1218852,Sr2CaSn5,"Ca, Sn, Sr",3,0.0061687981249956,Orthorhombic,63,Cmcm,0.0,True,True
mp-1079890,Al2CuIr,"Al, Cu, Ir",3,0.0,Orthorhombic,67,Cmme,0.0,False,True
mp-1222000,MnVGa5,"Ga, Mn, V",3,0.028506889065933905,Orthorhombic,65,Cmmm,0.0,True,True
mp-570765,YMg4Cu,"Cu, Mg, Y",3,0.010836153833333473,Orthorhombic,65,Cmmm,0.0,False,True
mp-568040,La2AlNi9,"Al, La, Ni",3,0.0,Orthorhombic,65,Cmmm,0.0,True,True
mp-1222929,LaAlNi4,"Al, La, Ni",3,0.0,Orthorhombic,65,Cmmm,0.0,True,True
mp-1079217,LaGa2Ni,"Ga, La, Ni",3,0.0,Orthorhombic,65,Cmmm,0.0,False,True
mp-1222896,LaNi3Rh2,"La, Ni, Rh",3,0.0,Orthorhombic,65,Cmmm,0.0,True,True
mp-1218338,SrCu4Ag,"Ag, Cu, Sr",3,0.024955128333333576,Orthorhombic,65,Cmmm,0.0,True,True
mp-1223006,LaAl2Ag3,"Ag, Al, La",3,0.0,Orthorhombic,65,Cmmm,0.0,True,True
mp-1222898,LaAlCu4,"Al, Cu, La",3,0.0,Orthorhombic,65,Cmmm,0.0,True,True
mp-1022697,YHfMg6,"Hf, Mg, Y",3,0.09154102187499946,Orthorhombic,65,Cmmm,0.0,True,True
mp-11356,La3Co2Sn7,"Co, La, Sn",3,0.0,Orthorhombic,65,Cmmm,0.0,False,True
mp-1022923,YMg6Zr,"Mg, Y, Zr",3,0.04486890062499915,Orthorhombic,65,Cmmm,0.0,True,True
mp-1222949,LaCoNi4,"Co, La, Ni",3,0.03793514250000385,Orthorhombic,65,Cmmm,0.0,True,True
mp-1222871,LaNi4Pt,"La, Ni, Pt",3,0.0,Orthorhombic,65,Cmmm,0.0,True,True
mp-1216356,Y4ZrNi25,"Ni, Y, Zr",3,0.00715504933333122,Orthorhombic,65,Cmmm,0.0,True,True
mp-1207146,La2CdNi2,"Cd, La, Ni",3,0.0,Orthorhombic,65,Cmmm,0.0,True,True
mp-1225549,LaAl2Cu3,"Al, Cu, La",3,0.0,Orthorhombic,65,Cmmm,0.0,True,True
mp-569523,Y2InNi2,"In, Ni, Y",3,0.0,Orthorhombic,65,Cmmm,0.0,False,True
mp-13093,La3Ni2Sn7,"La, Ni, Sn",3,0.0,Orthorhombic,65,Cmmm,0.0,True,True
mp-974045,La11In9Ni4,"In, La, Ni",3,0.0,Orthorhombic,65,Cmmm,0.0,False,True
mp-1222858,LaNi4Rh,"La, Ni, Rh",3,0.0,Orthorhombic,65,Cmmm,0.0,True,True
mp-865689,Y11In9Ni4,"In, Ni, Y",3,0.0,Orthorhombic,65,Cmmm,0.0,False,True
mp-2647066,Zr2AlCu2,"Al, Cu, Zr",3,0.011170826431192715,Orthorhombic,65,Cmmm,0.0,True,True
mp-1192186,La5In11Ni6,"In, La, Ni",3,0.0,Orthorhombic,65,Cmmm,0.0,False,True
mp-1195776,Ba(CoSn4)2,"Ba, Co, Sn",3,0.0,Orthorhombic,66,Cccm,0.0,False,True
mp-1223260,La(Al5Cu)2,"Al, Cu, La",3,0.024090036410255422,Orthorhombic,69,Fmmm,0.0,True,True
mp-31470,Na4TlAu,"Au, Na, Tl",3,0.01362670479166539,Orthorhombic,69,Fmmm,0.0,False,True
mp-1216566,TlPdPb,"Pb, Pd, Tl",3,0.0010718883333282747,Orthorhombic,69,Fmmm,0.0,True,True
mp-1218057,Ta5Ga2Sn,"Ga, Sn, Ta",3,0.012114764562497271,Orthorhombic,69,Fmmm,0.0,True,True
mp-1199653,Hf2TiNi3,"Hf, Ni, Ti",3,0.0678306633333321,Orthorhombic,70,Fddd,0.0,True,True
mp-570068,K(Sn3Au2)2,"Au, K, Sn",3,0.0,Orthorhombic,70,Fddd,0.0,False,True
mp-1078231,Sr(GaRh)2,"Ga, Rh, Sr",3,0.0,Orthorhombic,70,Fddd,0.0,False,True
mp-30755,La2Sn5Rh3,"La, Rh, Sn",3,0.0,Orthorhombic,72,Ibam,0.0,False,True
mp-1213542,Na16Zn11Sn16,"Na, Sn, Zn",3,0.014235040460644388,Orthorhombic,72,Ibam,0.0396999999999994,True,False
mp-1211840,LaIn6Ni7,"In, La, Ni",3,0.024461045969387918,Orthorhombic,72,Ibam,0.0,True,True
mp-1079130,Ba2ZnBi2,"Ba, Bi, Zn",3,0.0,Orthorhombic,72,Ibam,0.0823999999999998,False,False
mp-1203634,Sr6Sn12Pt11,"Pt, Sn, Sr",3,0.0,Orthorhombic,72,Ibam,0.0,False,True
mp-1103999,Ba3InHg10,"Ba, Hg, In",3,0.006839560714287041,Orthorhombic,71,Immm,0.0,False,True
mp-1068053,Ca2AgPd2,"Ag, Ca, Pd",3,0.0,Orthorhombic,71,Immm,0.0,False,True
mp-1228742,Al9Co2Ni,"Al, Co, Ni",3,0.019566181744792743,Orthorhombic,71,Immm,0.0,True,True
mp-1216182,Y(VCo5)2,"Co, V, Y",3,0.06290050086784671,Orthorhombic,71,Immm,0.0,True,True
mp-1080524,LaAl5Ni2,"Al, La, Ni",3,0.0,Orthorhombic,71,Immm,0.0,False,True
mp-1209292,Sc6InCo2,"Co, In, Sc",3,0.0,Orthorhombic,71,Immm,0.0,True,True
mp-1207941,Y6InCo2,"Co, In, Y",3,0.0,Orthorhombic,71,Immm,0.0,True,True
mp-1216218,Y(Co5Mo)2,"Co, Mo, Y",3,0.052966267278103274,Orthorhombic,71,Immm,0.0,True,True
mp-1222050,Na10Sn4Au13,"Au, Na, Sn",3,0.0014346688888871029,Orthorhombic,71,Immm,0.0,True,True
mp-1102613,La3(ZnPt)4,"La, Pt, Zn",3,0.0,Orthorhombic,71,Immm,0.0,False,True
mp-1104438,Hf(GaFe)6,"Fe, Ga, Hf",3,0.0,Orthorhombic,71,Immm,0.0,False,True
mp-1104861,Ba3CdHg10,"Ba, Cd, Hg",3,0.01868261142857386,Orthorhombic,71,Immm,0.0,False,True
mp-1103910,Zr(GaFe)6,"Fe, Ga, Zr",3,0.0,Orthorhombic,71,Immm,0.0,False,True
mp-7376,Sr3(AlSn)2,"Al, Sn, Sr",3,0.0,Orthorhombic,71,Immm,0.0,False,True
mp-1219472,Sc(AlFe)6,"Al, Fe, Sc",3,0.0,Orthorhombic,71,Immm,0.0,True,True
mp-1207809,Y12Co5Bi,"Bi, Co, Y",3,0.0,Orthorhombic,71,Immm,0.0,True,True
mp-1104485,Y(GaFe)6,"Fe, Ga, Y",3,0.0,Orthorhombic,71,Immm,0.0,False,True
mp-1068035,Ca2MgPd2,"Ca, Mg, Pd",3,0.0,Orthorhombic,71,Immm,0.0,False,True
mp-1216200,Y(MnAl)6,"Al, Mn, Y",3,0.044348391472144755,Orthorhombic,71,Immm,0.0,True,True
mp-1205490,La3(AgSn)4,"Ag, La, Sn",3,0.0,Orthorhombic,71,Immm,0.0,True,True
mp-1227648,Ca(InCu)6,"Ca, Cu, In",3,0.017245787802188772,Orthorhombic,71,Immm,0.0,True,True
mp-7377,Ba3(AlSn)2,"Al, Ba, Sn",3,0.0,Orthorhombic,71,Immm,0.0,False,True
mp-11438,Sc(GaFe)6,"Fe, Ga, Sc",3,0.0,Orthorhombic,71,Immm,0.0,False,True
mp-1201703,Y(FeSn)6,"Fe, Sn, Y",3,0.0323745608974324,Orthorhombic,71,Immm,0.0,False,True
mp-1068286,Ca2CdPd2,"Ca, Cd, Pd",3,0.0,Orthorhombic,71,Immm,0.0,False,True
mp-1206356,Y2GaCo2,"Co, Ga, Y",3,0.0,Orthorhombic,71,Immm,0.0,True,True
mp-1216254,Y(MnCo)6,"Co, Mn, Y",3,0.056120719585798895,Orthorhombic,71,Immm,0.0,True,True
mp-1070755,Y2GaNi2,"Ga, Ni, Y",3,0.0,Orthorhombic,71,Immm,0.0,False,True
mp-1215723,Zr(AlFe)6,"Al, Fe, Zr",3,0.0,Orthorhombic,71,Immm,0.0,True,True
mp-13532,La2ZnNi2,"La, Ni, Zn",3,0.00717628366666645,Orthorhombic,71,Immm,0.0,False,True
mp-1068331,Y2Ni2Sn,"Ni, Sn, Y",3,0.002984275302750916,Orthorhombic,71,Immm,0.0,False,True
mp-1207723,Y(GaCo)6,"Co, Ga, Y",3,0.007316756298073379,Orthorhombic,71,Immm,0.0,True,True
mp-1216230,Y(Fe5Mo)2,"Fe, Mo, Y",3,0.016054193846150255,Orthorhombic,71,Immm,0.0,True,True
mp-1095575,Y3(CuSn)4,"Cu, Sn, Y",3,0.0,Orthorhombic,71,Immm,0.0,False,True
mp-1216159,Y(CrFe5)2,"Cr, Fe, Y",3,0.02563885230769003,Orthorhombic,71,Immm,0.0,True,True
mp-1188555,Y6GaCo2,"Co, Ga, Y",3,0.0,Orthorhombic,71,Immm,0.0,False,True
mp-1104155,Y3Ga8Ag3,"Ag, Ga, Y",3,0.013943520357147854,Orthorhombic,71,Immm,0.0,False,True
mp-604516,Y2AlNi2,"Al, Ni, Y",3,0.002298067499994616,Orthorhombic,71,Immm,0.0,True,True
mp-1207811,Y6Co2Sn,"Co, Sn, Y",3,0.006153649537037786,Orthorhombic,71,Immm,0.0,True,True
mp-1104240,Y3Ga9Pt2,"Ga, Pt, Y",3,0.02050023665816081,Orthorhombic,71,Immm,0.0,False,True
mp-1224395,Hf(AlFe)6,"Al, Fe, Hf",3,0.0,Orthorhombic,71,Immm,0.0,True,True
mp-1104965,Y3Ga8Rh3,"Ga, Rh, Y",3,0.038483869040177865,Orthorhombic,71,Immm,0.0,False,True
mp-1068157,Sr2CdPt2,"Cd, Pt, Sr",3,0.0,Orthorhombic,71,Immm,0.0,False,True
mp-1207776,Y3Co6Sn5,"Co, Sn, Y",3,0.03106438982142823,Orthorhombic,71,Immm,0.0,True,True
mp-1068002,Ca2MgPt2,"Ca, Mg, Pt",3,0.0,Orthorhombic,71,Immm,0.0,False,True
mp-1216148,Y(AlFe)6,"Al, Fe, Y",3,0.0,Orthorhombic,71,Immm,0.0,True,True
mp-1101768,La3(ZnPd)4,"La, Pd, Zn",3,0.0,Orthorhombic,71,Immm,0.0,False,True
mp-30472,Ca2GaCu2,"Ca, Cu, Ga",3,0.0,Orthorhombic,71,Immm,0.0,False,True
mp-1216275,Y(InCu)6,"Cu, In, Y",3,0.0,Orthorhombic,71,Immm,0.0,True,True
mp-1216170,Y(VFe5)2,"Fe, V, Y",3,0.02849733692306522,Orthorhombic,71,Immm,0.0,True,True
mp-1216227,Y(Fe5Re)2,"Fe, Re, Y",3,0.01675607250000155,Orthorhombic,71,Immm,0.0,True,True
mp-1095231,Ba3(LiBi)4,"Ba, Bi, Li",3,0.0,Orthorhombic,71,Immm,0.0,False,True
mp-1216263,Y(Fe5W)2,"Fe, W, Y",3,0.04211727269230714,Orthorhombic,71,Immm,0.0,True,True
mp-1215711,Zr(MnAl)6,"Al, Mn, Zr",3,0.02591070387573957,Orthorhombic,71,Immm,0.0,True,True
mp-1207797,Y3Ga9Cu2,"Cu, Ga, Y",3,0.016494450428583995,Orthorhombic,71,Immm,0.0,True,True
mp-1216210,Y(AlCu)6,"Al, Cu, Y",3,0.0,Orthorhombic,71,Immm,0.0,True,True
mp-1069824,Ca2CdPt2,"Ca, Cd, Pt",3,0.0,Orthorhombic,71,Immm,0.0,False,True
mp-31471,K3PbAu5,"Au, K, Pb",3,0.0,Orthorhombic,74,Imma,0.0,False,True
mp-1215987,YFeNi,"Fe, Ni, Y",3,0.08217402916667016,Orthorhombic,74,Imma,0.0,True,True
mp-976190,K3TlAu5,"Au, K, Tl",3,8.66758994719774e-05,Orthorhombic,74,Imma,0.0,False,True
mp-1215168,ZrVMo,"Mo, V, Zr",3,0.0,Orthorhombic,74,Imma,0.0,True,True
mp-1215943,YMnFe,"Fe, Mn, Y",3,0.08874174735632145,Orthorhombic,74,Imma,0.0,True,True
mp-1215957,YCoNi,"Co, Ni, Y",3,0.02530639683679592,Orthorhombic,74,Imma,0.0,True,True
mp-1215271,ZrFeCo,"Co, Fe, Zr",3,0.007154175555550424,Orthorhombic,74,Imma,0.0,True,True
mp-1215937,YAlFe,"Al, Fe, Y",3,0.00730171570512983,Orthorhombic,74,Imma,0.0,True,True
mp-1221951,MgZnCu,"Cu, Mg, Zn",3,0.0,Orthorhombic,74,Imma,0.0,True,True
mp-1220374,NbVCr,"Cr, Nb, V",3,0.0,Orthorhombic,74,Imma,0.0,True,True
mp-1215268,ZrCrW,"Cr, W, Zr",3,0.020403851666671358,Orthorhombic,74,Imma,0.0,True,True
mp-867331,K3InAu5,"Au, In, K",3,0.0,Orthorhombic,74,Imma,0.0,False,True
mp-1215953,YMnCo,"Co, Mn, Y",3,0.058159105689656876,Orthorhombic,74,Imma,0.0,True,True
mp-1215269,ZrCrMo,"Cr, Mo, Zr",3,0.018293370000005638,Orthorhombic,74,Imma,0.0,True,True
mp-1215170,ZrVCr,"Cr, V, Zr",3,0.09773371999999725,Orthorhombic,74,Imma,0.0,True,True
mp-1215234,ZrMnNi,"Mn, Ni, Zr",3,0.04939015625000032,Orthorhombic,74,Imma,0.0,True,True
mp-1215220,ZrMoW,"Mo, W, Zr",3,0.0040009533333247305,Orthorhombic,74,Imma,0.0,True,True
mp-1215169,ZrVW,"V, W, Zr",3,0.002299322499997203,Orthorhombic,74,Imma,0.0,True,True
mp-1224321,HfAlZn,"Al, Hf, Zn",3,0.0,Orthorhombic,74,Imma,0.0,True,True
mp-1215958,YFeCo,"Co, Fe, Y",3,0.0,Orthorhombic,74,Imma,0.0,True,True
mp-1215318,ZrAlCu,"Al, Cu, Zr",3,0.0,Orthorhombic,74,Imma,0.0,True,True
mp-1221921,MgZnCo,"Co, Mg, Zn",3,0.0,Orthorhombic,74,Imma,0.0,True,True
mp-1215934,YMnAl,"Al, Mn, Y",3,0.04300596763409903,Orthorhombic,74,Imma,0.0,True,True
mp-1215275,ZrCoNi,"Co, Ni, Zr",3,0.02665756642856998,Orthorhombic,74,Imma,0.0,True,True
mp-1256151,Zr5AlNi4,"Al, Ni, Zr",3,0.013505415500001838,Tetragonal,83,P4/m,0.0,False,True
mp-31158,Ca7Ni4Sn13,"Ca, Ni, Sn",3,0.0,Tetragonal,83,P4/m,0.0,False,True
mp-637263,Zr5AlNi4,"Al, Ni, Zr",3,0.012875591000002906,Tetragonal,84,P4_2/m,0.0,True,True
mp-1227579,Ca20(CdGa3)3,"Ca, Cd, Ga",3,0.0,Tetragonal,89,P422,0.0,True,True
mp-1094154,Ca3(MgZn2)5,"Ca, Mg, Zn",3,0.0052878260222219975,Monoclinic,9,Cc,0.0,True,True
mp-1095684,SrInPd,"In, Pd, Sr",3,0.0,Orthorhombic,62,Pnma,0.0,False,True
mp-1103109,LaAlPt,"Al, La, Pt",3,0.0,Orthorhombic,62,Pnma,0.0,False,True
mp-21523,La(In2Au)2,"Au, In, La",3,0.0,Orthorhombic,62,Pnma,0.0,False,True
mp-1105559,YGaPd2,"Ga, Pd, Y",3,0.0,Orthorhombic,62,Pnma,0.0,False,True
mp-30652,Sc3(MnGa3)2,"Ga, Mn, Sc",3,0.0003116572511743243,Orthorhombic,62,Pnma,0.0,False,True
mp-30456,SrLiBi,"Bi, Li, Sr",3,0.0,Orthorhombic,62,Pnma,0.5558000000000001,False,False
mp-1195613,Sr2Al5Pd4,"Al, Pd, Sr",3,0.0,Orthorhombic,62,Pnma,0.0,False,True
mp-1103314,SrMgPb,"Mg, Pb, Sr",3,0.0,Orthorhombic,62,Pnma,0.0,False,True
mp-4054,YAl3Ni,"Al, Ni, Y",3,0.0,Orthorhombic,62,Pnma,0.0,False,True
mp-1211364,LaAlNi,"Al, La, Ni",3,0.0,Orthorhombic,62,Pnma,0.0,True,True
mp-30780,SrMgSn,"Mg, Sn, Sr",3,0.0,Orthorhombic,62,Pnma,0.0,False,True
mp-1095544,ScGaPd,"Ga, Pd, Sc",3,0.0,Orthorhombic,62,Pnma,0.0,False,True
mp-1102840,YAlAu,"Al, Au, Y",3,0.0,Orthorhombic,62,Pnma,0.0,False,True
mp-1103280,YGaIr,"Ga, Ir, Y",3,0.0,Orthorhombic,62,Pnma,0.0,False,True
mp-1210366,Y3Ga15Ru4,"Ga, Ru, Y",3,0.00462047636363927,Orthorhombic,62,Pnma,0.0,True,True
mp-1102184,ScGaPt,"Ga, Pt, Sc",3,0.0,Orthorhombic,62,Pnma,0.0,False,True
mp-1095491,YCoSn,"Co, Sn, Y",3,0.0158042191666663,Orthorhombic,62,Pnma,0.0,False,True
mp-31295,La3(Sn3Pd2)2,"La, Pd, Sn",3,0.0,Orthorhombic,62,Pnma,0.0,False,True
mp-1101849,YGaPd,"Ga, Pd, Y",3,0.0,Orthorhombic,62,Pnma,0.0,False,True
mp-29561,CaSnAu,"Au, Ca, Sn",3,0.0,Orthorhombic,62,Pnma,0.0,False,True
mp-1095464,YAlPd,"Al, Pd, Y",3,0.0,Orthorhombic,62,Pnma,0.0,False,True