material_id,formula,elements,num_elements,energy_above_hull,crystal_system,spacegroup_number,spacegroup_symbol,band_gap,theoretical,is_metal
mp-1023266,Mg6AlGa,"Al, Ga, Mg",3,0.06070147651041724,Orthorhombic,38,Amm2,0.0,True,True
mp-1027939,LiMg14Zr,"Li, Mg, Zr",3,0.06869430437500013,Orthorhombic,38,Amm2,0.0,True,True
mp-1028188,CaLaMg14,"Ca, La, Mg",3,0.09490998124999983,Orthorhombic,38,Amm2,0.0,True,True
mp-1021372,Mg6SnBi,"Bi, Mg, Sn",3,0.08580675281249883,Orthorhombic,38,Amm2,0.0,True,True
mp-1027857,NaMg14Zr,"Mg, Na, Zr",3,0.09949849178879333,Orthorhombic,38,Amm2,0.0,True,True
mp-1028186,NaCaMg14,"Ca, Mg, Na",3,0.08164621335129318,Orthorhombic,38,Amm2,0.0,True,True
mp-1099313,LiMg6Ga,"Ga, Li, Mg",3,0.040333444124999396,Orthorhombic,38,Amm2,0.0,True,True
mp-1215306,ZrAlV,"Al, V, Zr",3,0.048618053888885626,Orthorhombic,38,Amm2,0.0,True,True
mp-1023485,Mg6AlZn,"Al, Mg, Zn",3,0.0662172770854168,Orthorhombic,38,Amm2,0.0,True,True
mp-1215757,Zr2Cr3Fe,"Cr, Fe, Zr",3,0.028076431666669066,Orthorhombic,38,Amm2,0.0,True,True
mp-1027959,Mg14TiZn,"Mg, Ti, Zn",3,0.09027376437500023,Orthorhombic,38,Amm2,0.0,True,True
mp-1017082,Mg6GaBi,"Bi, Ga, Mg",3,0.08393648531249909,Orthorhombic,38,Amm2,0.0,True,True
mp-1028140,YMg14Mn,"Mg, Mn, Y",3,0.09034906544181043,Orthorhombic,38,Amm2,0.0,True,True
mp-1220546,NbCrFe,"Cr, Fe, Nb",3,0.019196132499999408,Orthorhombic,38,Amm2,0.0,True,True
mp-1021394,Mg6GaSn,"Ga, Mg, Sn",3,0.07196585874999961,Orthorhombic,38,Amm2,0.0,True,True
mp-1027945,LaMg14Zr,"La, Mg, Zr",3,0.08752200281249989,Orthorhombic,38,Amm2,0.0,True,True
mp-1027969,YHfMg14,"Hf, Mg, Y",3,0.08333923468750015,Orthorhombic,38,Amm2,0.0,True,True
mp-1223202,La2NiPt,"La, Ni, Pt",3,0.003918211249999359,Orthorhombic,38,Amm2,0.0,True,True
mp-1017180,Mg6CdBi,"Bi, Cd, Mg",3,0.07580626218749908,Orthorhombic,38,Amm2,0.0,True,True
mp-1026404,Mg14NbSn,"Mg, Nb, Sn",3,0.09181913729166657,Orthorhombic,38,Amm2,0.0,True,True
mp-1027840,Mg14ZrCd,"Cd, Mg, Zr",3,0.04549976921875021,Orthorhombic,38,Amm2,0.0,True,True
mp-1215337,ZrTiNi,"Ni, Ti, Zr",3,0.06198088805555457,Orthorhombic,38,Amm2,0.0,True,True
mp-1028291,Mg14TiSn,"Mg, Sn, Ti",3,0.07573236510416681,Orthorhombic,38,Amm2,0.0,True,True
mp-1028066,YMg14Sn,"Mg, Sn, Y",3,0.06010686411931809,Orthorhombic,38,Amm2,0.0,True,True
mp-1215194,ZrVCo,"Co, V, Zr",3,0.01319764966666881,Orthorhombic,38,Amm2,0.0,True,True
mp-1222071,MgCoNi,"Co, Mg, Ni",3,0.016607688842593227,Orthorhombic,38,Amm2,0.0,True,True
mp-1027930,Mg14ZnGa,"Ga, Mg, Zn",3,0.04108399341250024,Orthorhombic,38,Amm2,0.0,True,True
mp-1223589,La2CuSn4,"Cu, La, Sn",3,0.002996401678566407,Orthorhombic,38,Amm2,0.0,True,True
mp-1022079,Mg6CdCu,"Cd, Cu, Mg",3,0.08402602968749995,Orthorhombic,38,Amm2,0.0,True,True
mp-1215320,ZrCrCo,"Co, Cr, Zr",3,0.034741226666671565,Orthorhombic,38,Amm2,0.0,True,True
mp-1026575,Mg14CdSn,"Cd, Mg, Sn",3,0.037098822187499936,Orthorhombic,38,Amm2,0.0,True,True
mp-1027972,NaMg14Zn,"Mg, Na, Zn",3,0.06735568551379334,Orthorhombic,38,Amm2,0.0,True,True
mp-1022592,Mg6ZnBi,"Bi, Mg, Zn",3,0.08873984026249948,Orthorhombic,38,Amm2,0.0,True,True
mp-1022588,Mg6ZnBi,"Bi, Mg, Zn",3,0.09457902713749955,Orthorhombic,38,Amm2,0.0,True,True
mp-1027922,Mg14ZnCd,"Cd, Mg, Zn",3,0.03888118716250011,Orthorhombic,38,Amm2,0.0,True,True
mp-1022805,SrYMg6,"Mg, Sr, Y",3,0.05511444437499957,Orthorhombic,38,Amm2,0.0,True,True
mp-1217995,TaAlZn,"Al, Ta, Zn",3,0.0,Orthorhombic,38,Amm2,0.0,True,True
mp-1028235,Mg14AlCd,"Al, Cd, Mg",3,0.031643029505208586,Orthorhombic,38,Amm2,0.0,True,True
mp-1028134,CaMg14Cd,"Ca, Cd, Mg",3,0.056617240000000235,Orthorhombic,38,Amm2,0.0,True,True
mp-1026787,LiMg14Ga,"Ga, Li, Mg",3,0.0358047120624998,Orthorhombic,38,Amm2,0.0,True,True
mp-1023308,CaMg6Zn,"Ca, Mg, Zn",3,0.09405566687499967,Orthorhombic,38,Amm2,0.0,True,True
mp-1026417,HfMg14Ga,"Ga, Hf, Mg",3,0.0996599004166665,Orthorhombic,38,Amm2,0.0,True,True
mp-1215295,ZrCrFe,"Cr, Fe, Zr",3,0.030705898333339476,Orthorhombic,38,Amm2,0.0,True,True
mp-1028102,Mg14MnGa,"Ga, Mg, Mn",3,0.08060505231681026,Orthorhombic,38,Amm2,0.0,True,True
mp-1215191,ZrTiNi2,"Ni, Ti, Zr",3,0.039173400000000136,Orthorhombic,38,Amm2,0.0,True,True
mp-1217064,TiCoNi2,"Co, Ni, Ti",3,0.019054988333334855,Orthorhombic,38,Amm2,0.0,True,True
mp-1027876,Mg14ZrBi,"Bi, Mg, Zr",3,0.05894881635416738,Orthorhombic,38,Amm2,0.0,True,True
mp-1227320,Ca2GaAg,"Ag, Ca, Ga",3,0.05428217250000067,Orthorhombic,38,Amm2,0.0,True,True
mp-1215357,ZrAlCo,"Al, Co, Zr",3,0.029018709882354443,Orthorhombic,38,Amm2,0.0,True,True
mp-1026885,NaMg14Cu,"Cu, Mg, Na",3,0.08742072042571891,Orthorhombic,38,Amm2,0.0,True,True
mp-1028163,Mg14AlBi,"Al, Bi, Mg",3,0.06470169841145834,Orthorhombic,38,Amm2,0.0,True,True
mp-1218064,TaAlFe,"Al, Fe, Ta",3,0.06828810556666731,Orthorhombic,38,Amm2,0.0,True,True
mp-1028166,CaYMg14,"Ca, Mg, Y",3,0.07282227062499991,Orthorhombic,38,Amm2,0.0,True,True
mp-1022836,LaYMg6,"La, Mg, Y",3,0.06819064312500123,Orthorhombic,38,Amm2,0.0,True,True
mp-1219418,Sc3Ga5Co,"Co, Ga, Sc",3,0.0,Orthorhombic,38,Amm2,0.0,True,True
mp-1017288,NaMg6Ga,"Ga, Mg, Na",3,0.09054105982758665,Orthorhombic,38,Amm2,0.0,True,True
mp-1023163,LiCaMg6,"Ca, Li, Mg",3,0.08635931562499954,Orthorhombic,38,Amm2,0.0,True,True
mp-1215277,ZrMnAl,"Al, Mn, Zr",3,0.0073376816666508304,Orthorhombic,38,Amm2,0.0,True,True
mp-1218116,TaAlNi,"Al, Ni, Ta",3,0.031176616333340235,Orthorhombic,38,Amm2,0.0,True,True
mp-1217850,TaVCo,"Co, Ta, V",3,0.009944110037036324,Orthorhombic,38,Amm2,0.0,True,True
mp-1028154,Mg14MnSn,"Mg, Mn, Sn",3,0.07729359950431025,Orthorhombic,38,Amm2,0.0,True,True
mp-1026522,Mg14NbCd,"Cd, Mg, Nb",3,0.09636307218750018,Orthorhombic,38,Amm2,0.0,True,True
mp-1216089,YAlNi,"Al, Ni, Y",3,0.09779930333333375,Orthorhombic,38,Amm2,0.0,True,True
mp-1026613,Mg14GaSn,"Ga, Mg, Sn",3,0.057432107812499966,Orthorhombic,38,Amm2,0.0,True,True
mp-1215242,ZrTi2Al,"Al, Ti, Zr",3,0.04906002708333368,Orthorhombic,38,Amm2,0.0,True,True
mp-1026648,Mg14SnBi,"Bi, Mg, Sn",3,0.06159334921874948,Orthorhombic,38,Amm2,0.0,True,True
mp-966740,Cs5Tl11Cd2,"Cd, Cs, Tl",3,0.0,Orthorhombic,38,Amm2,0.0,False,True
mp-1028046,LaYMg14,"La, Mg, Y",3,0.07872647187500048,Orthorhombic,38,Amm2,0.0,True,True
mp-1028213,YMg14Al,"Al, Mg, Y",3,0.06871883927083378,Orthorhombic,38,Amm2,0.0,True,True
mp-1026660,NaMg14Bi,"Bi, Mg, Na",3,0.06486821020833378,Orthorhombic,38,Amm2,0.0,True,True
mp-1215392,Zr5Sc5Ga6,"Ga, Sc, Zr",3,0.018659761822918952,Orthorhombic,38,Amm2,0.0,True,True
mp-1099077,Mg14GaNi,"Ga, Mg, Ni",3,0.0713824012500004,Orthorhombic,38,Amm2,0.0,True,True
mp-1224426,HfAlIr,"Al, Hf, Ir",3,0.05011280940972718,Orthorhombic,38,Amm2,0.0,True,True
mp-1228329,Ba2PtAu,"Au, Ba, Pt",3,0.006256425000000121,Orthorhombic,38,Amm2,0.0,True,True
mp-1026623,SrMg14Ga,"Ga, Mg, Sr",3,0.08710979531250018,Orthorhombic,38,Amm2,0.0,True,True
mp-1026638,HfMg14Sn,"Hf, Mg, Sn",3,0.07024155075000138,Orthorhombic,38,Amm2,0.0,True,True
mp-1023275,Mg6AlCd,"Al, Cd, Mg",3,0.053928237135416834,Orthorhombic,38,Amm2,0.0,True,True
mp-1215241,ZrVFe,"Fe, V, Zr",3,0.017707886666666894,Orthorhombic,38,Amm2,0.0,True,True
mp-1028139,CaMg14Ga,"Ca, Ga, Mg",3,0.06181979750000011,Orthorhombic,38,Amm2,0.0,True,True
mp-1028317,LaMg14Sn,"La, Mg, Sn",3,0.0746472698883931,Orthorhombic,38,Amm2,0.0,True,True
mp-1220549,NbAlFe,"Al, Fe, Nb",3,0.04849073740000076,Orthorhombic,38,Amm2,0.0,True,True
mp-1028203,CaMg14Ni,"Ca, Mg, Ni",3,0.09860745989583353,Orthorhombic,38,Amm2,0.0,True,True
mp-1220522,NbVCo,"Co, Nb, V",3,0.010004840925928349,Orthorhombic,38,Amm2,0.0,True,True
mp-1222500,Li3Sn11Pd4,"Li, Pd, Sn",3,0.0016695981746011057,Orthorhombic,38,Amm2,0.0,True,True
mp-1021401,Mg6GaSn,"Ga, Mg, Sn",3,0.07766827937499965,Orthorhombic,38,Amm2,0.0,True,True
mp-1215321,ZrMnFe,"Fe, Mn, Zr",3,0.0430294758333396,Orthorhombic,38,Amm2,0.0,True,True
mp-1028093,YMg14Zn,"Mg, Y, Zn",3,0.06706027489583355,Orthorhombic,38,Amm2,0.0,True,True
mp-1215261,ZrVFe,"Fe, V, Zr",3,0.0,Orthorhombic,38,Amm2,0.0,True,True
mp-1021377,Mg6SnBi,"Bi, Mg, Sn",3,0.09738468906249897,Orthorhombic,38,Amm2,0.0,True,True
mp-1224466,HfAlCr,"Al, Cr, Hf",3,0.027059349166666635,Orthorhombic,38,Amm2,0.0,True,True
mp-1223308,La2NiSn4,"La, Ni, Sn",3,0.009478329404773334,Orthorhombic,38,Amm2,0.0,True,True
mp-1026398,Mg14TiBi,"Bi, Mg, Ti",3,0.07575326901041635,Orthorhombic,38,Amm2,0.0,True,True
mp-1028042,NaYMg14,"Mg, Na, Y",3,0.08154224960129319,Orthorhombic,38,Amm2,0.0,True,True
mp-1222023,MgGaCu,"Cu, Ga, Mg",3,0.0,Orthorhombic,38,Amm2,0.0,True,True
mp-1023154,CaMg6Cd,"Ca, Cd, Mg",3,0.07958248312500027,Orthorhombic,38,Amm2,0.0,True,True
mp-1023319,CaYMg6,"Ca, Mg, Y",3,0.026657794999999318,Orthorhombic,38,Amm2,0.0,True,True
mp-1023268,Mg6AlBi,"Al, Bi, Mg",3,0.08836576994791612,Orthorhombic,38,Amm2,0.0,True,True
mp-1022086,Mg6GaCu,"Cu, Ga, Mg",3,0.0968748409375002,Orthorhombic,38,Amm2,0.0,True,True
mp-1215324,ZrVCo,"Co, V, Zr",3,0.026944136333334257,Orthorhombic,38,Amm2,0.0,True,True
mp-1028388,Mg14NiSn,"Mg, Ni, Sn",3,0.07664458020833331,Orthorhombic,38,Amm2,0.0,True,True
mp-1223634,La2(GaNi)5,"Ga, La, Ni",3,0.05886867541666252,Orthorhombic,38,Amm2,0.0,True,True
mp-1017095,Mg6GaBi,"Bi, Ga, Mg",3,0.08420552843749896,Orthorhombic,38,Amm2,0.0,True,True
mp-1026803,LiMg14Cd,"Cd, Li, Mg",3,0.03788271500000007,Orthorhombic,38,Amm2,0.0,True,True
mp-1215246,ZrTiRh,"Rh, Ti, Zr",3,0.058740679999999657,Orthorhombic,38,Amm2,0.0,True,True
mp-1028234,Mg14AlSn,"Al, Mg, Sn",3,0.055108861067708625,Orthorhombic,38,Amm2,0.0,True,True
mp-1026697,NaMg14Ga,"Ga, Mg, Na",3,0.05301746522629336,Orthorhombic,38,Amm2,0.0,True,True
mp-1227127,CaMgCd,"Ca, Cd, Mg",3,0.007120065833333911,Orthorhombic,38,Amm2,0.0,True,True
mp-1218096,TaAlCu,"Al, Cu, Ta",3,0.0,Orthorhombic,38,Amm2,0.0,True,True
mp-1215302,ZrAlPd,"Al, Pd, Zr",3,0.01167506618159031,Orthorhombic,38,Amm2,0.0,True,True
mp-1028237,NaMg14Al,"Al, Mg, Na",3,0.05642604223150194,Orthorhombic,38,Amm2,0.0,True,True
mp-1022458,Mg6ZrCd,"Cd, Mg, Zr",3,0.07960767593749996,Orthorhombic,38,Amm2,0.0,True,True
mp-1022616,Mg6ZnGa,"Ga, Mg, Zn",3,0.06723269245000041,Orthorhombic,38,Amm2,0.0,True,True
mp-1217084,TiAlNi,"Al, Ni, Ti",3,0.06228255833333307,Orthorhombic,38,Amm2,0.0,True,True
mp-1022650,YMg6Cd,"Cd, Mg, Y",3,0.07323792625000003,Orthorhombic,38,Amm2,0.0,True,True
mp-1215600,Zr2CoNi,"Co, Ni, Zr",3,0.0,Orthorhombic,38,Amm2,0.0,True,True
mp-1220393,NbCrGa,"Cr, Ga, Nb",3,0.07175253369047496,Orthorhombic,38,Amm2,0.0,True,True
mp-1026583,SrMg14Cd,"Cd, Mg, Sr",3,0.08478809562500023,Orthorhombic,38,Amm2,0.0,True,True
mp-1028211,CaMg14Al,"Al, Ca, Mg",3,0.06559145796874999,Orthorhombic,38,Amm2,0.0,True,True
mp-1028350,Mg14CdNi,"Cd, Mg, Ni",3,0.07773467052083327,Orthorhombic,38,Amm2,0.0,True,True
mp-1218022,TaCrCo,"Co, Cr, Ta",3,0.010836422666665513,Orthorhombic,38,Amm2,0.0,True,True
mp-1419473,CaIn4Ni,"Ca, In, Ni",3,0.04420587333333348,Orthorhombic,38,Amm2,0.0,True,True
mp-1026831,SrLiMg14,"Li, Mg, Sr",3,0.09105305374999983,Orthorhombic,38,Amm2,0.0,True,True
mp-1027942,Mg14ZrCu,"Cu, Mg, Zr",3,0.08242250570312493,Orthorhombic,38,Amm2,0.0,True,True
mp-1027927,HfMg14Zn,"Hf, Mg, Zn",3,0.08738401898437465,Orthorhombic,38,Amm2,0.0,True,True
mp-1221672,MnAl12Fe,"Al, Fe, Mn",3,0.0,Orthorhombic,38,Amm2,0.0,True,True
mp-1215296,ZrMnCr,"Cr, Mn, Zr",3,0.005478516666672206,Orthorhombic,38,Amm2,0.0,True,True
mp-1028041,YMg14Ti,"Mg, Ti, Y",3,0.08810301197916637,Orthorhombic,38,Amm2,0.0,True,True
mp-1215327,ZrAlIr,"Al, Ir, Zr",3,0.028855167508687884,Orthorhombic,38,Amm2,0.0,True,True
mp-1022599,NaMg6Zn,"Mg, Na, Zn",3,0.09928105040258628,Orthorhombic,38,Amm2,0.0,True,True
mp-1027902,LaMg14Cu,"Cu, La, Mg",3,0.0948854842187501,Orthorhombic,38,Amm2,0.0,True,True
mp-1022607,Mg6ZnCd,"Cd, Mg, Zn",3,0.05407525807500013,Orthorhombic,38,Amm2,0.0,True,True
mp-1021380,Mg6CdSn,"Cd, Mg, Sn",3,0.0623777131249994,Orthorhombic,38,Amm2,0.0,True,True
mp-1022601,LiMg6Zn,"Li, Mg, Zn",3,0.05882515500000007,Orthorhombic,38,Amm2,0.0,True,True
mp-974790,Rb5Tl11Cd2,"Cd, Rb, Tl",3,0.0,Orthorhombic,38,Amm2,0.0,False,True
mp-1216079,YAlCo,"Al, Co, Y",3,0.06806179749999952,Orthorhombic,38,Amm2,0.0,True,True
mp-1023267,CaMg6Zn,"Ca, Mg, Zn",3,0.09404356249999957,Orthorhombic,38,Amm2,0.0,True,True
mp-1017302,NaMg6Ga,"Ga, Mg, Na",3,0.08988332357758644,Orthorhombic,38,Amm2,0.0,True,True
mp-1224495,HfMnAl,"Al, Hf, Mn",3,0.0,Orthorhombic,38,Amm2,0.0,True,True
mp-1028135,CaMg14Bi,"Bi, Ca, Mg",3,0.0911336981473212,Orthorhombic,38,Amm2,0.0,True,True
mp-1219369,ScAlNi,"Al, Ni, Sc",3,0.014483089166668073,Orthorhombic,38,Amm2,0.0,True,True
mp-1026876,Mg14CdCu,"Cd, Cu, Mg",3,0.06073786109375012,Orthorhombic,38,Amm2,0.0,True,True
mp-1028399,Mg14CdCo,"Cd, Co, Mg",3,0.09747331062500009,Orthorhombic,38,Amm2,0.0,True,True
mp-1217201,Ti4Mn5V3,"Mn, Ti, V",3,0.0,Orthorhombic,38,Amm2,0.0,True,True
mp-1220599,NbVNi,"Nb, Ni, V",3,0.0,Orthorhombic,38,Amm2,0.0,True,True
mp-1026745,LaMg14Cd,"Cd, La, Mg",3,0.0754642346875003,Orthorhombic,38,Amm2,0.0,True,True
mp-1220408,NbAlZn,"Al, Nb, Zn",3,0.0,Orthorhombic,38,Amm2,0.0,True,True
mp-1027905,Mg14ZnBi,"Bi, Mg, Zn",3,0.06444561106874991,Orthorhombic,38,Amm2,0.0,True,True
mp-1215203,ZrVCu,"Cu, V, Zr",3,0.06254995698717991,Orthorhombic,38,Amm2,0.0,True,True
mp-1028086,YMg14Zr,"Mg, Y, Zr",3,0.06392073093749984,Orthorhombic,38,Amm2,0.0,True,True
mp-1021398,LiMg6Sn,"Li, Mg, Sn",3,0.06605676656249981,Orthorhombic,38,Amm2,0.0,True,True
mp-1224494,HfAlRh,"Al, Hf, Rh",3,0.06394447904902378,Orthorhombic,38,Amm2,0.0,True,True
mp-1216033,YAlFe,"Al, Fe, Y",3,0.01418000237179573,Orthorhombic,38,Amm2,0.0,True,True
mp-1021282,NaLiMg6,"Li, Mg, Na",3,0.07574275022270083,Orthorhombic,38,Amm2,0.0,True,True
mp-1220594,NbCrNi,"Cr, Nb, Ni",3,0.05024690538888699,Orthorhombic,38,Amm2,0.0,True,True
mp-1027932,Mg14ZrTi,"Mg, Ti, Zr",3,0.08209628104166677,Orthorhombic,38,Amm2,0.0,True,True
mp-1219323,ScMnCr,"Cr, Mn, Sc",3,0.04793286750000014,Orthorhombic,38,Amm2,0.0,True,True
mp-1215279,ZrVNi,"Ni, V, Zr",3,0.0653792591666651,Orthorhombic,38,Amm2,0.0,True,True
mp-1028257,SrMg14Al,"Al, Mg, Sr",3,0.09093201499999992,Orthorhombic,38,Amm2,0.0,True,True
mp-1027829,Mg14CuSn,"Cu, Mg, Sn",3,0.06395562640624997,Orthorhombic,38,Amm2,0.0,True,True
mp-1028216,Mg14ZrAl,"Al, Mg, Zr",3,0.0872686561979168,Orthorhombic,38,Amm2,0.0,True,True
mp-1224498,Hf5Zr5Ga6,"Ga, Hf, Zr",3,0.0,Orthorhombic,38,Amm2,0.0,True,True
mp-1222060,MgAlAg,"Ag, Al, Mg",3,0.02462849083333385,Orthorhombic,38,Amm2,0.0,True,True
mp-1217776,Ti2NbNi9,"Nb, Ni, Ti",3,0.039257751874997915,Orthorhombic,38,Amm2,0.0,True,True
mp-1022632,YMg6Cd,"Cd, Mg, Y",3,0.07189618750000015,Orthorhombic,38,Amm2,0.0,True,True
mp-1022076,Mg6CdCu,"Cd, Cu, Mg",3,0.08387427718749985,Orthorhombic,38,Amm2,0.0,True,True
mp-1220472,NbGaCu,"Cu, Ga, Nb",3,0.03670296166666809,Orthorhombic,38,Amm2,0.0,True,True
mp-1021276,LiMg6Cd,"Cd, Li, Mg",3,0.040547068750000026,Orthorhombic,38,Amm2,0.0,True,True
mp-1027863,Mg14ZrGa,"Ga, Mg, Zr",3,0.08915205937500037,Orthorhombic,38,Amm2,0.0,True,True
mp-1027868,HfMg14Zr,"Hf, Mg, Zr",3,0.07730157750000055,Orthorhombic,38,Amm2,0.0,True,True
mp-1023306,Mg6AlCd,"Al, Cd, Mg",3,0.04951974401041692,Orthorhombic,38,Amm2,0.0,True,True
mp-1028047,Mg14ZnNi,"Mg, Ni, Zn",3,0.07991292518333348,Orthorhombic,38,Amm2,0.0,True,True
mp-1215323,ZrCrFe,"Cr, Fe, Zr",3,0.031020270000006178,Orthorhombic,38,Amm2,0.0,True,True
mp-1224502,HfAlCo,"Al, Co, Hf",3,0.05346094910447441,Orthorhombic,38,Amm2,0.0,True,True
mp-1022611,Mg6ZnSn,"Mg, Sn, Zn",3,0.07580717307499985,Orthorhombic,38,Amm2,0.0,True,True
mp-1215340,ZrAlFe,"Al, Fe, Zr",3,0.028904783055556216,Orthorhombic,38,Amm2,0.0,True,True
mp-1028130,YMg14Cu,"Cu, Mg, Y",3,0.07772585737500037,Orthorhombic,38,Amm2,0.0,True,True
mp-1027993,Mg14ZrZn,"Mg, Zn, Zr",3,0.07327253250000032,Orthorhombic,38,Amm2,0.0,True,True
mp-1224385,HfAlPd,"Al, Hf, Pd",3,0.05198919935185131,Orthorhombic,38,Amm2,0.0,True,True
mp-1028385,LaMg14Al,"Al, La, Mg",3,0.0831599617187504,Orthorhombic,38,Amm2,0.0,True,True
mp-1026439,Mg14CdGa,"Cd, Ga, Mg",3,0.03232649062500004,Orthorhombic,38,Amm2,0.0,True,True
mp-1027977,LaMg14Zn,"La, Mg, Zn",3,0.08524071000000011,Orthorhombic,38,Amm2,0.0,True,True
mp-1227563,Ca16Mg3Sn13,"Ca, Mg, Sn",3,0.02168068866477224,Orthorhombic,38,Amm2,0.0,True,True
mp-1027921,Mg14ZrSn,"Mg, Sn, Zr",3,0.0651379911250003,Orthorhombic,38,Amm2,0.0,True,True
mp-1215240,ZrTiPd,"Pd, Ti, Zr",3,0.04480754249999919,Orthorhombic,38,Amm2,0.0,True,True
mp-1223275,La2FeSn4,"Fe, La, Sn",3,0.053999972714282585,Orthorhombic,38,Amm2,0.0,True,True
mp-1027892,Mg14CoSn,"Co, Mg, Sn",3,0.09912283906249986,Orthorhombic,38,Amm2,0.0,True,True
mp-1215339,ZrFeMo,"Fe, Mo, Zr",3,0.07500154000000414,Orthorhombic,38,Amm2,0.0,True,True
mp-1023395,Mg6AlSn,"Al, Mg, Sn",3,0.07594917651041655,Orthorhombic,38,Amm2,0.0,True,True
mp-1223248,La2Sn4Ru,"La, Ru, Sn",3,0.027771071071430953,Orthorhombic,38,Amm2,0.0,True,True
mp-1217214,TiAlCu,"Al, Cu, Ti",3,0.04367723583333216,Orthorhombic,38,Amm2,0.0,True,True
mp-1022589,Mg6ZnCd,"Cd, Mg, Zn",3,0.05321462432500024,Orthorhombic,38,Amm2,0.0,True,True
mp-1026388,Mg14TiCd,"Cd, Mg, Ti",3,0.06980478322916661,Orthorhombic,38,Amm2,0.0,True,True
mp-1215350,ZrFeRe,"Fe, Re, Zr",3,0.04859087666666895,Orthorhombic,38,Amm2,0.0,True,True
mp-1023253,LiCaMg6,"Ca, Li, Mg",3,0.09205522312499959,Orthorhombic,38,Amm2,0.0,True,True
mp-1022612,Mg6ZnSn,"Mg, Sn, Zn",3,0.07669937869999988,Orthorhombic,38,Amm2,0.0,True,True
mp-1021159,BaLaMg6,"Ba, La, Mg",3,0.08570198400568163,Orthorhombic,38,Amm2,0.0,True,True
mp-1215307,ZrAlMo,"Al, Mo, Zr",3,0.012998103137253025,Orthorhombic,38,Amm2,0.0,True,True
mp-1022812,LiYMg6,"Li, Mg, Y",3,0.08722916624999932,Orthorhombic,38,Amm2,0.0,True,True
mp-1023320,LiMg6Al,"Al, Li, Mg",3,0.05914789812499999,Orthorhombic,38,Amm2,0.0,True,True
mp-1215322,ZrCoRe,"Co, Re, Zr",3,0.028989079166665377,Orthorhombic,38,Amm2,0.0,True,True
mp-1028268,LiMg14Sn,"Li, Mg, Sn",3,0.03792041859375006,Orthorhombic,38,Amm2,0.0,True,True
mp-1027965,YMg14Ga,"Ga, Mg, Y",3,0.08062607052083326,Orthorhombic,38,Amm2,0.0,True,True
mp-1022467,Mg6ZrCd,"Cd, Mg, Zr",3,0.07675978093750002,Orthorhombic,38,Amm2,0.0,True,True
mp-1023239,SrCaMg6,"Ca, Mg, Sr",3,0.060083106874999626,Orthorhombic,38,Amm2,0.0,True,True
mp-1216045,ZrMnGa,"Ga, Mn, Zr",3,0.06024331568965646,Orthorhombic,38,Amm2,0.0,True,True
mp-1027971,LiMg14Zn,"Li, Mg, Zn",3,0.046851297500000166,Orthorhombic,38,Amm2,0.0,True,True
mp-1218015,TaCoNi2,"Co, Ni, Ta",3,0.0,Orthorhombic,38,Amm2,0.0,True,True
mp-1228156,Ba2(AlAg)5,"Ag, Al, Ba",3,0.0,Orthorhombic,38,Amm2,0.0,True,True
mp-1027758,LiMg14Co,"Co, Li, Mg",3,0.09418894677083323,Orthorhombic,38,Amm2,0.0,True,True
mp-1224481,HfAlCu,"Al, Cu, Hf",3,0.030488599090910284,Orthorhombic,38,Amm2,0.0,True,True
mp-1026428,HfMg14Cd,"Cd, Hf, Mg",3,0.0675354040624998,Orthorhombic,38,Amm2,0.0,True,True
mp-1217088,TiAlCr,"Al, Cr, Ti",3,0.09133075916666833,Orthorhombic,38,Amm2,0.0,True,True
mp-1023303,NaMg6Al,"Al, Mg, Na",3,0.09567498133800334,Orthorhombic,38,Amm2,0.0,True,True
mp-1028084,Mg14MnCd,"Cd, Mg, Mn",3,0.07979485481681015,Orthorhombic,38,Amm2,0.0,True,True
mp-1215270,ZrTiAu,"Au, Ti, Zr",3,0.08542289833333427,Orthorhombic,38,Amm2,0.0,True,True
mp-1022924,LaYMg6,"La, Mg, Y",3,0.029946216250001267,Orthorhombic,38,Amm2,0.0,True,True
mp-1028004,SrMg14Zn,"Mg, Sr, Zn",3,0.08657190546875015,Orthorhombic,38,Amm2,0.0,True,True
mp-1021274,LiMg6Cd,"Cd, Li, Mg",3,0.04111924562500002,Orthorhombic,38,Amm2,0.0,True,True
mp-1028052,LiYMg14,"Li, Mg, Y",3,0.057416504687499925,Orthorhombic,38,Amm2,0.0,True,True
mp-1217864,TaVNi,"Ni, Ta, V",3,0.007231251500005698,Orthorhombic,38,Amm2,0.0,True,True
mp-1027832,LiMg14Cu,"Cu, Li, Mg",3,0.057487218802083184,Orthorhombic,38,Amm2,0.0,True,True
mp-1026768,LiMg14Bi,"Bi, Li, Mg",3,0.06298857468749985,Orthorhombic,38,Amm2,0.0,True,True
mp-1026406,HfMg14Bi,"Bi, Hf, Mg",3,0.0686003192187501,Orthorhombic,38,Amm2,0.0,True,True
mp-1227346,Ca2CuAg,"Ag, Ca, Cu",3,0.017097397249999702,Orthorhombic,38,Amm2,0.0,True,True
mp-1215712,Zr2CrFe3,"Cr, Fe, Zr",3,0.027001423333334884,Orthorhombic,38,Amm2,0.0,True,True