material_id,formula,elements,num_elements,energy_above_hull,crystal_system,spacegroup_number,spacegroup_symbol,band_gap,theoretical,is_metal
mp-861507,ScAlIr2,"Al, Ir, Sc",3,0.0,Cubic,225,Fm-3m,0.0,True,True
mp-1184978,Li2InHg,"Hg, In, Li",3,0.00892313749999829,Cubic,225,Fm-3m,0.0,True,True
mp-865523,TiMnRh2,"Mn, Rh, Ti",3,0.0,Cubic,225,Fm-3m,0.0,True,True
mp-1186232,NbTc2Sn,"Nb, Sn, Tc",3,0.0,Cubic,225,Fm-3m,0.0,True,True
mp-865490,V2CrFe,"Cr, Fe, V",3,0.0,Cubic,225,Fm-3m,0.0,True,True
mp-866041,Ga2IrRu,"Ga, Ir, Ru",3,0.0,Cubic,225,Fm-3m,0.0,True,True
mp-1185207,LiCdHg2,"Cd, Hg, Li",3,0.0,Cubic,225,Fm-3m,0.0,True,True
mp-5748,HfAlNi2,"Al, Hf, Ni",3,0.0,Cubic,225,Fm-3m,0.0,False,True
mp-1187939,ZnSnRh2,"Rh, Sn, Zn",3,0.0,Cubic,225,Fm-3m,0.0,True,True
mp-865145,NaTl2Bi,"Bi, Na, Tl",3,0.0,Cubic,225,Fm-3m,0.2027000000000001,True,False
mp-1193089,Hf6Ga16Rh7,"Ga, Hf, Rh",3,0.02512199910812818,Cubic,225,Fm-3m,0.0,False,True
mp-31208,LiIn2Ir,"In, Ir, Li",3,0.0,Cubic,225,Fm-3m,0.0,False,True
mp-865229,Be2NiIr,"Be, Ir, Ni",3,0.0,Cubic,225,Fm-3m,0.0,True,True
mp-981933,NaPd2Pb,"Na, Pb, Pd",3,0.019231696590907177,Cubic,225,Fm-3m,0.0,True,True
mp-1184612,Hf2TcNi,"Hf, Ni, Tc",3,0.011364907499995525,Cubic,225,Fm-3m,0.0,True,True
mp-1185619,MgZn2Rh,"Mg, Rh, Zn",3,0.0034903027499995076,Cubic,225,Fm-3m,0.0,True,True
mp-1187434,Ti2FeTc,"Fe, Tc, Ti",3,0.008989007500000312,Cubic,225,Fm-3m,0.0,True,True
mp-862684,LiHf2Os,"Hf, Li, Os",3,0.0,Cubic,225,Fm-3m,0.0,True,True
mp-864614,LiMg2Pt,"Li, Mg, Pt",3,0.0,Cubic,225,Fm-3m,0.0,True,True
mp-1187527,TlAgPd2,"Ag, Pd, Tl",3,0.007857433869041586,Cubic,225,Fm-3m,0.0,True,True
mp-862291,BeGaRh2,"Be, Ga, Rh",3,0.0,Cubic,225,Fm-3m,0.0,True,True
mp-10894,MnAlRh2,"Al, Mn, Rh",3,0.0,Cubic,225,Fm-3m,0.0,False,True
mp-865039,HfTc2Sn,"Hf, Sn, Tc",3,0.03665602687499714,Cubic,225,Fm-3m,0.0,True,True
mp-865497,V2ReOs,"Os, Re, V",3,0.0,Cubic,225,Fm-3m,0.0,True,True
mp-1185602,La2GaAg,"Ag, Ga, La",3,0.007104717500000746,Cubic,225,Fm-3m,0.0,True,True
mp-977540,CaBiPd2,"Bi, Ca, Pd",3,0.011599524062497757,Cubic,225,Fm-3m,0.0,True,True
mp-861666,LiRu2W,"Li, Ru, W",3,0.0,Cubic,225,Fm-3m,0.0,True,True
mp-862662,LaMgZn2,"La, Mg, Zn",3,0.0,Cubic,225,Fm-3m,0.0,True,True
mp-1183219,Ba2MgTl,"Ba, Mg, Tl",3,0.0,Cubic,225,Fm-3m,0.0,True,True
mp-1100780,ZrZnPd2,"Pd, Zn, Zr",3,0.0,Cubic,225,Fm-3m,0.0,True,True
mp-1187771,Y2CuPt,"Cu, Pt, Y",3,0.018063457812502293,Cubic,225,Fm-3m,0.0,True,True
mp-867905,LiLa2Ru,"La, Li, Ru",3,0.07811138452380995,Cubic,225,Fm-3m,0.0,True,True
mp-862746,Sr2LiTl,"Li, Sr, Tl",3,0.0,Cubic,225,Fm-3m,0.0,True,True
mp-867979,LaInHg2,"Hg, In, La",3,0.0,Cubic,225,Fm-3m,0.0,True,True
mp-867761,Sc2CoRu,"Co, Ru, Sc",3,0.0,Cubic,225,Fm-3m,0.0,True,True
mp-865728,Ti2ReNi,"Ni, Re, Ti",3,0.0,Cubic,225,Fm-3m,0.0,True,True
mp-867849,Ca2TlCd,"Ca, Cd, Tl",3,0.0,Cubic,225,Fm-3m,0.0,True,True
mp-1186102,NaAg2Sn,"Ag, Na, Sn",3,0.04339133281250085,Cubic,225,Fm-3m,0.0,True,True
mp-1194470,Hf6Al16Pt7,"Al, Hf, Pt",3,0.0,Cubic,225,Fm-3m,0.0,False,True
mp-867258,LiZnPd2,"Li, Pd, Zn",3,0.0,Cubic,225,Fm-3m,0.0,True,True
mp-30592,CuNi2Sn,"Cu, Ni, Sn",3,0.03483389854166674,Cubic,225,Fm-3m,0.0,False,True
mp-978976,Ti6Al16Pt7,"Al, Pt, Ti",3,0.0,Cubic,225,Fm-3m,0.0,False,True
mp-1184607,HfZrOs2,"Hf, Os, Zr",3,0.0,Cubic,225,Fm-3m,0.0,True,True
mp-1184982,Li2BiAu,"Au, Bi, Li",3,0.026453099999999896,Cubic,225,Fm-3m,0.0,True,True
mp-983850,Ca2AgAu,"Ag, Au, Ca",3,0.025546808750000594,Cubic,225,Fm-3m,0.0,True,True
mp-1185963,MgSc2Ir,"Ir, Mg, Sc",3,0.04023799607142564,Cubic,225,Fm-3m,0.0,True,True
mp-862337,Sc2InAg,"Ag, In, Sc",3,0.0,Cubic,225,Fm-3m,0.0,True,True
mp-1188019,Zr2ReRh,"Re, Rh, Zr",3,0.010191826099994472,Cubic,225,Fm-3m,0.0,True,True
mp-862747,Sr2PtAu,"Au, Pt, Sr",3,0.05933732750000331,Cubic,225,Fm-3m,0.0,True,True
mp-862911,Ti2CoTc,"Co, Tc, Ti",3,0.0,Cubic,225,Fm-3m,0.0,True,True
mp-867901,ScTaTc2,"Sc, Ta, Tc",3,0.03792005031250234,Cubic,225,Fm-3m,0.0,True,True
mp-7187,TiAlNi2,"Al, Ni, Ti",3,0.0,Cubic,225,Fm-3m,0.0,False,True
mp-16495,AlCrFe2,"Al, Cr, Fe",3,0.01695240624999883,Cubic,225,Fm-3m,0.0,False,True
mp-862361,Sc2NiOs,"Ni, Os, Sc",3,0.0,Cubic,225,Fm-3m,0.0,True,True
mp-978523,Sc2ZnCu,"Cu, Sc, Zn",3,0.013394392500000407,Cubic,225,Fm-3m,0.0,True,True
mp-11366,ZrZnCu2,"Cu, Zn, Zr",3,0.0,Cubic,225,Fm-3m,0.0,False,True
mp-866223,CaYHg2,"Ca, Hg, Y",3,0.0,Cubic,225,Fm-3m,0.0,True,True
mp-865099,NaLaHg2,"Hg, La, Na",3,0.0,Cubic,225,Fm-3m,0.0,True,True
mp-1184573,HfTaRu2,"Hf, Ru, Ta",3,0.011538860000001705,Cubic,225,Fm-3m,0.0,True,True
mp-862296,LiAlPt2,"Al, Li, Pt",3,0.0,Cubic,225,Fm-3m,0.0,True,True
mp-866075,MgTaIr2,"Ir, Mg, Ta",3,0.0,Cubic,225,Fm-3m,0.0,True,True
mp-866139,TiBe2Ir,"Be, Ir, Ti",3,0.0,Cubic,225,Fm-3m,0.0,True,True
mp-862672,LiY2Rh,"Li, Rh, Y",3,0.009756284095238321,Cubic,225,Fm-3m,0.0,True,True
mp-1184602,Hf2MnCo,"Co, Hf, Mn",3,0.06911564343750243,Cubic,225,Fm-3m,0.0,True,True
mp-1184601,HfZrRu2,"Hf, Ru, Zr",3,0.0032363525000000948,Cubic,225,Fm-3m,0.0,True,True
mp-1185239,LiTl2Pd,"Li, Pd, Tl",3,0.010634181250004815,Cubic,225,Fm-3m,0.0,True,True
mp-1187473,TiGaTc2,"Ga, Tc, Ti",3,0.014973979999998832,Cubic,225,Fm-3m,0.0,True,True
mp-1183548,CaMgCd2,"Ca, Cd, Mg",3,0.0,Cubic,225,Fm-3m,0.0,True,True
mp-865102,NaLaTl2,"La, Na, Tl",3,0.001610881030894351,Cubic,225,Fm-3m,0.0,True,True
mp-1187731,Y2ZnHg,"Hg, Y, Zn",3,0.010055722499998865,Cubic,225,Fm-3m,0.0,True,True
mp-1187422,Ti2CoOs,"Co, Os, Ti",3,0.0,Cubic,225,Fm-3m,0.0,True,True
mp-977359,CaSnAu2,"Au, Ca, Sn",3,0.0,Cubic,225,Fm-3m,0.0,True,True
mp-976326,NaInAg2,"Ag, In, Na",3,0.038723199999999736,Cubic,225,Fm-3m,0.0,True,True
mp-867114,TaBeRu2,"Be, Ru, Ta",3,0.0,Cubic,225,Fm-3m,0.0,True,True
mp-867828,BeNbRu2,"Be, Nb, Ru",3,0.0,Cubic,225,Fm-3m,0.0,True,True
mp-30819,LiAl2Pt,"Al, Li, Pt",3,0.0,Cubic,225,Fm-3m,0.0,False,True
mp-863707,KNa2Bi,"Bi, K, Na",3,0.0,Cubic,225,Fm-3m,0.0,True,True
mp-1185316,LiGa2Co,"Co, Ga, Li",3,0.03561814374999983,Cubic,225,Fm-3m,0.0,True,True
mp-867124,La2ZnIr,"Ir, La, Zn",3,0.0790927624999993,Cubic,225,Fm-3m,0.0,True,True
mp-867781,TaGaRu2,"Ga, Ru, Ta",3,0.0,Cubic,225,Fm-3m,0.0,True,True
mp-861640,Ti2AlRe,"Al, Re, Ti",3,0.0,Cubic,225,Fm-3m,0.0,True,True
mp-1183305,BaSrHg2,"Ba, Hg, Sr",3,0.016307632499998448,Cubic,225,Fm-3m,0.0,True,True
mp-978256,Mg2TlPb,"Mg, Pb, Tl",3,0.0,Cubic,225,Fm-3m,0.0,True,True
mp-973957,La2ZnAg,"Ag, La, Zn",3,0.0057366025000007426,Cubic,225,Fm-3m,0.0,True,True
mp-864883,MgSnPd2,"Mg, Pd, Sn",3,0.0,Cubic,225,Fm-3m,0.0,True,True
mp-867350,Ca2MgIn,"Ca, In, Mg",3,0.0,Cubic,225,Fm-3m,0.0,True,True
mp-861901,LiGaCu2,"Cu, Ga, Li",3,0.0,Cubic,225,Fm-3m,0.0,True,True
mp-1183460,Ca2InPb,"Ca, In, Pb",3,0.014453691875000452,Cubic,225,Fm-3m,0.0,True,True
mp-1183037,ZrZnAu2,"Au, Zn, Zr",3,0.0,Cubic,225,Fm-3m,0.0,True,True
mp-1187511,TiRe2Mo,"Mo, Re, Ti",3,0.0,Cubic,225,Fm-3m,0.0,True,True
mp-1186943,Sc2GaPd,"Ga, Pd, Sc",3,0.019793296249998704,Cubic,225,Fm-3m,0.0,True,True
mp-1184615,Hf2CuRh,"Cu, Hf, Rh",3,0.03392611365385001,Cubic,225,Fm-3m,0.0,True,True
mp-865093,TiZnNi2,"Ni, Ti, Zn",3,0.0,Cubic,225,Fm-3m,0.0,True,True
mp-982974,LiBeAu2,"Au, Be, Li",3,0.0057941406249995,Cubic,225,Fm-3m,0.0,True,True
mp-1194261,Sc6Al16Pd7,"Al, Pd, Sc",3,0.0,Cubic,225,Fm-3m,0.0,False,True
mp-862262,LaCdHg2,"Cd, Hg, La",3,0.0,Cubic,225,Fm-3m,0.0,True,True
mp-864782,Ta2MoRu,"Mo, Ru, Ta",3,0.0,Cubic,225,Fm-3m,0.0,True,True
mp-864943,MnBe2Ir,"Be, Ir, Mn",3,0.0,Cubic,225,Fm-3m,0.0,True,True
mp-1184647,HfZrCo2,"Co, Hf, Zr",3,0.0,Cubic,225,Fm-3m,0.0,True,True
mp-11519,NiSnRh2,"Ni, Rh, Sn",3,0.020375088749998937,Cubic,225,Fm-3m,0.0,False,True
mp-867822,LiYAu2,"Au, Li, Y",3,0.00812958749999737,Cubic,225,Fm-3m,0.0,True,True
mp-1185770,Mg2NiRh,"Mg, Ni, Rh",3,0.010170365156250583,Cubic,225,Fm-3m,0.0,True,True
mp-1183173,AlGaNi2,"Al, Ga, Ni",3,0.019714050952382323,Cubic,225,Fm-3m,0.0,True,True
mp-1185379,LiIn2Ag,"Ag, In, Li",3,0.01646954250000121,Cubic,225,Fm-3m,0.0,True,True
mp-1183301,Ba2ZnHg,"Ba, Hg, Zn",3,0.0036882933333337586,Cubic,225,Fm-3m,0.0,True,True
mp-864770,Ta2MoOs,"Mo, Os, Ta",3,0.0,Cubic,225,Fm-3m,0.0,True,True
mp-1187432,Ti2CoMo,"Co, Mo, Ti",3,0.05420286055555579,Cubic,225,Fm-3m,0.0,True,True
mp-862300,Sc2GaOs,"Ga, Os, Sc",3,0.0,Cubic,225,Fm-3m,0.0,True,True
mp-862379,Sc2TcAg,"Ag, Sc, Tc",3,0.014370795312501627,Cubic,225,Fm-3m,0.0,True,True
mp-973056,Na2CdHg,"Cd, Hg, Na",3,0.011814057857141513,Cubic,225,Fm-3m,0.0,True,True
mp-866169,KTl2Bi,"Bi, K, Tl",3,0.0,Cubic,225,Fm-3m,0.0,True,True
mp-1193884,Zr6Ga16Ru7,"Ga, Ru, Zr",3,0.04397135212643377,Cubic,225,Fm-3m,0.0,False,True
mp-642031,Sr11Al4In3,"Al, In, Sr",3,0.0028261527469140013,Cubic,225,Fm-3m,0.0,False,True
mp-1183617,CaInAg2,"Ag, Ca, In",3,0.03302308781250218,Cubic,225,Fm-3m,0.0,True,True
mp-1183204,Ba2CdHg,"Ba, Cd, Hg",3,0.007915799999999251,Cubic,225,Fm-3m,0.0,True,True
mp-978265,Mg2ZnPd,"Mg, Pd, Zn",3,0.009695222395834868,Cubic,225,Fm-3m,0.0,True,True
mp-864968,MnInRh2,"In, Mn, Rh",3,0.0,Cubic,225,Fm-3m,0.0,True,True
mp-865020,HfMgIr2,"Hf, Ir, Mg",3,0.0,Cubic,225,Fm-3m,0.0,True,True
mp-866213,TiTc2Mo,"Mo, Tc, Ti",3,0.0,Cubic,225,Fm-3m,0.0,True,True
mp-865121,NaSrAu2,"Au, Na, Sr",3,0.026257758000003406,Cubic,225,Fm-3m,0.0,True,True
mp-867125,Al2RuPt,"Al, Pt, Ru",3,0.0,Cubic,225,Fm-3m,0.0,True,True
mp-862297,LiAlRh2,"Al, Li, Rh",3,0.0,Cubic,225,Fm-3m,0.0,True,True
mp-1184604,Hf2OsRu,"Hf, Os, Ru",3,0.0,Cubic,225,Fm-3m,0.0,True,True
mp-976236,NaCaTl2,"Ca, Na, Tl",3,0.015183137500002886,Cubic,225,Fm-3m,0.0,True,True
mp-864923,MgZnPd2,"Mg, Pd, Zn",3,0.0,Cubic,225,Fm-3m,0.0,True,True
mp-973874,LiLa2Al,"Al, La, Li",3,0.02777335364583422,Cubic,225,Fm-3m,0.0,True,True
mp-865805,TaZnCo2,"Co, Ta, Zn",3,0.0,Cubic,225,Fm-3m,0.0,True,True
mp-1186961,Sc2TlHg,"Hg, Sc, Tl",3,0.0,Cubic,225,Fm-3m,0.0,True,True
mp-21175,TaGaNi2,"Ga, Ni, Ta",3,0.0024405581048370095,Cubic,225,Fm-3m,0.0,False,True
mp-977561,LiTaIr2,"Ir, Li, Ta",3,0.0,Cubic,225,Fm-3m,0.0,True,True
mp-1187216,SrHg2Pb,"Hg, Pb, Sr",3,0.0,Cubic,225,Fm-3m,0.0,True,True
mp-977549,Zr2OsRu,"Os, Ru, Zr",3,0.0,Cubic,225,Fm-3m,0.0,True,True
mp-865586,VGaRu2,"Ga, Ru, V",3,0.0,Cubic,225,Fm-3m,0.0,True,True
mp-1187195,Ta2VIr,"Ir, Ta, V",3,0.0,Cubic,225,Fm-3m,0.0,True,True
mp-864598,LiMg2Ag,"Ag, Li, Mg",3,0.0,Cubic,225,Fm-3m,0.0,True,True
mp-1187492,TiTc2Sn,"Sn, Tc, Ti",3,0.0,Cubic,225,Fm-3m,0.0,True,True
mp-1185233,Li2YIn,"In, Li, Y",3,0.0,Cubic,225,Fm-3m,0.04789999999999983,True,False
mp-975997,NaLi2Pb,"Li, Na, Pb",3,0.02011342971666874,Cubic,225,Fm-3m,0.0,True,True
mp-866288,BeVCo2,"Be, Co, V",3,0.0,Cubic,225,Fm-3m,0.0,True,True
mp-977430,MgNbRu2,"Mg, Nb, Ru",3,0.0,Cubic,225,Fm-3m,0.0,True,True
mp-864734,HfInPd2,"Hf, In, Pd",3,0.0,Cubic,225,Fm-3m,0.0,True,True
mp-1186950,Sc2InHg,"Hg, In, Sc",3,0.024600214999999537,Cubic,225,Fm-3m,0.0,True,True
mp-10872,HfAlAu2,"Al, Au, Hf",3,0.018337413333334496,Cubic,225,Fm-3m,0.0,False,True
mp-1186224,NbGaTc2,"Ga, Nb, Tc",3,0.0,Cubic,225,Fm-3m,0.0,True,True
mp-972899,Sc2GaIr,"Ga, Ir, Sc",3,0.025148502500000447,Cubic,225,Fm-3m,0.0,True,True
mp-864764,Ta2FeOs,"Fe, Os, Ta",3,0.004915379375001194,Cubic,225,Fm-3m,0.0,True,True
mp-862791,GaCuPt2,"Cu, Ga, Pt",3,0.04884635749999955,Cubic,225,Fm-3m,0.0,True,True
mp-866168,TiInPd2,"In, Pd, Ti",3,0.0,Cubic,225,Fm-3m,0.0,True,True
mp-867263,ScCdHg2,"Cd, Hg, Sc",3,0.0,Cubic,225,Fm-3m,0.0,True,True
mp-1183448,Ca2CdGa,"Ca, Cd, Ga",3,0.015126652500000226,Cubic,225,Fm-3m,0.0,True,True
mp-1185750,Mg2AgHg,"Ag, Hg, Mg",3,0.0,Cubic,225,Fm-3m,0.0,True,True
mp-861617,LaHgAu2,"Au, Hg, La",3,0.0,Cubic,225,Fm-3m,0.0,True,True
mp-1185423,LiZrPd2,"Li, Pd, Zr",3,0.026484790000001368,Cubic,225,Fm-3m,0.0,True,True
mp-865044,MgInIr2,"In, Ir, Mg",3,0.02593545718749901,Cubic,225,Fm-3m,0.0,True,True
mp-865650,Ti2TcRu,"Ru, Tc, Ti",3,0.0,Cubic,225,Fm-3m,0.0,True,True
mp-867137,ScVRu2,"Ru, Sc, V",3,0.0,Cubic,225,Fm-3m,0.0,True,True
mp-864761,Ta2MnOs,"Mn, Os, Ta",3,0.0017663354166685963,Cubic,225,Fm-3m,0.0,True,True
mp-1187499,TiMnIr2,"Ir, Mn, Ti",3,0.0030608155172409113,Cubic,225,Fm-3m,0.0,True,True
mp-1186021,Na2HgAu,"Au, Hg, Na",3,0.016146524166668286,Cubic,225,Fm-3m,0.0,True,True
mp-867119,LiHfPd2,"Hf, Li, Pd",3,0.006681774583334743,Cubic,225,Fm-3m,0.0,True,True
mp-1183450,Ca2GaHg,"Ca, Ga, Hg",3,0.02096130624999759,Cubic,225,Fm-3m,0.0,True,True
mp-862288,AlFe2W,"Al, Fe, W",3,0.0,Cubic,225,Fm-3m,0.0,True,True
mp-866279,CaCdPd2,"Ca, Cd, Pd",3,0.021220550937500082,Cubic,225,Fm-3m,0.0,True,True
mp-865091,HfMnRh2,"Hf, Mn, Rh",3,0.0,Cubic,225,Fm-3m,0.0,True,True
mp-1185824,MgAgAu2,"Ag, Au, Mg",3,0.012053674333331266,Cubic,225,Fm-3m,0.0,True,True
mp-865178,Hf2IrRh,"Hf, Ir, Rh",3,0.0,Cubic,225,Fm-3m,0.0,True,True
mp-867829,LiVRh2,"Li, Rh, V",3,0.0,Cubic,225,Fm-3m,0.0,True,True
mp-31185,MnAlFe2,"Al, Fe, Mn",3,0.0,Cubic,225,Fm-3m,0.0,False,True
mp-861960,CaInAu2,"Au, Ca, In",3,0.035720307740383817,Cubic,225,Fm-3m,0.0,True,True
mp-864930,LiTiIr2,"Ir, Li, Ti",3,0.0,Cubic,225,Fm-3m,0.0,True,True
mp-4922,MnAlNi2,"Al, Mn, Ni",3,0.0,Cubic,225,Fm-3m,0.0,False,True
mp-20228,MnGaNi2,"Ga, Mn, Ni",3,0.01272752749999917,Cubic,225,Fm-3m,0.0,False,True
mp-865664,TiRe2W,"Re, Ti, W",3,0.0,Cubic,225,Fm-3m,0.0,True,True
mp-981377,V2ReTc,"Re, Tc, V",3,0.0,Cubic,225,Fm-3m,0.0,True,True
mp-866080,MgSc2Tl,"Mg, Sc, Tl",3,0.0,Cubic,225,Fm-3m,0.0,True,True
mp-1184579,HfTiZn2,"Hf, Ti, Zn",3,0.0117869834374984,Cubic,225,Fm-3m,0.0,True,True
mp-1187231,Sr2ZnIn,"In, Sr, Zn",3,0.005388072812500422,Cubic,225,Fm-3m,0.0,True,True
mp-865810,TiTc2W,"Tc, Ti, W",3,0.0,Cubic,225,Fm-3m,0.0,True,True
mp-1185765,Mg2IrAu,"Au, Ir, Mg",3,0.04975164414473632,Cubic,225,Fm-3m,0.0,True,True
mp-1186958,Sc2CuRh,"Cu, Rh, Sc",3,0.017515162499999626,Cubic,225,Fm-3m,0.0,True,True
mp-973256,LaMgTl2,"La, Mg, Tl",3,0.016575830208334974,Cubic,225,Fm-3m,0.0,True,True
mp-867121,LiY2Pt,"Li, Pt, Y",3,0.033942637291666244,Cubic,225,Fm-3m,0.0,True,True
mp-975578,Li2SnHg,"Hg, Li, Sn",3,0.010015364999999221,Cubic,225,Fm-3m,0.0,True,True
mp-973434,Hf2IrRu,"Hf, Ir, Ru",3,0.030085634999998945,Cubic,225,Fm-3m,0.0,True,True
mp-865588,Y2CuRu,"Cu, Ru, Y",3,0.0,Cubic,225,Fm-3m,0.0,True,True
mp-1183048,ZrSnRu2,"Ru, Sn, Zr",3,0.0,Cubic,225,Fm-3m,0.0,True,True
mp-30774,MgNi2Sn,"Mg, Ni, Sn",3,0.0,Cubic,225,Fm-3m,0.0,False,True
mp-977580,MgSc2Al,"Al, Mg, Sc",3,0.0,Cubic,225,Fm-3m,0.0,True,True
mp-864940,Mg2PtRh,"Mg, Pt, Rh",3,0.0,Cubic,225,Fm-3m,0.0,True,True
mp-1183136,Al2OsRh,"Al, Os, Rh",3,0.0,Cubic,225,Fm-3m,0.0,True,True
mp-977578,Zr2TcPd,"Pd, Tc, Zr",3,0.0,Cubic,225,Fm-3m,0.0,True,True
mp-640024,HfInNi2,"Hf, In, Ni",3,0.03463929312096692,Cubic,225,Fm-3m,0.0,False,True
mp-972866,Sc2PdAu,"Au, Pd, Sc",3,0.008915302500000166,Cubic,225,Fm-3m,0.0,True,True
mp-867896,ScZnCu2,"Cu, Sc, Zn",3,0.0,Cubic,225,Fm-3m,0.0,True,True
mp-864878,ZrAlAu2,"Al, Au, Zr",3,0.013352950624998527,Cubic,225,Fm-3m,0.0,True,True
mp-1184770,InNi2Au,"Au, In, Ni",3,0.057278940625000274,Cubic,225,Fm-3m,0.0,True,True
mp-1187461,Ti2VOs,"Os, Ti, V",3,0.0,Cubic,225,Fm-3m,0.0,True,True
mp-866000,CaLaCd2,"Ca, Cd, La",3,0.0,Cubic,225,Fm-3m,0.0,True,True
mp-1185444,LiScRh2,"Li, Rh, Sc",3,0.01621157499999981,Cubic,225,Fm-3m,0.0,True,True
mp-1187764,Y2ZnPt,"Pt, Y, Zn",3,0.022830385000000675,Cubic,225,Fm-3m,0.0,True,True
mp-865768,Ti2MnOs,"Mn, Os, Ti",3,0.0,Cubic,225,Fm-3m,0.0,True,True
mp-865892,Li2CaPb,"Ca, Li, Pb",3,0.0,Cubic,225,Fm-3m,0.0,True,True
mp-30727,MgCdAg2,"Ag, Cd, Mg",3,0.0,Cubic,225,Fm-3m,0.0,False,True
mp-867787,RbTl2Bi,"Bi, Rb, Tl",3,0.012079752239579022,Cubic,225,Fm-3m,0.0,True,True
mp-1184955,Li2TlCd,"Cd, Li, Tl",3,0.0075763187500008655,Cubic,225,Fm-3m,0.0,True,True
mp-977363,Ta2TcMo,"Mo, Ta, Tc",3,0.0,Cubic,225,Fm-3m,0.0,True,True
mp-1184985,Li2InPb,"In, Li, Pb",3,0.0027709864473690615,Cubic,225,Fm-3m,0.0,True,True
mp-867307,Be2RuAu,"Au, Be, Ru",3,0.0,Cubic,225,Fm-3m,0.0,True,True
mp-865088,MnGaIr2,"Ga, Ir, Mn",3,0.0,Cubic,225,Fm-3m,0.0,True,True
mp-1185843,MgAlNi2,"Al, Mg, Ni",3,0.010864636666667593,Cubic,225,Fm-3m,0.0,True,True
mp-867123,TaTiOs2,"Os, Ta, Ti",3,0.0,Cubic,225,Fm-3m,0.0,True,True
mp-867109,ScZn2Ag,"Ag, Sc, Zn",3,0.007045755986842206,Cubic,225,Fm-3m,0.0,True,True
mp-865594,Y2CuIr,"Cu, Ir, Y",3,0.014566892569443546,Cubic,225,Fm-3m,0.0,True,True
mp-865842,Ti2OsRu,"Os, Ru, Ti",3,0.0,Cubic,225,Fm-3m,0.0,True,True
mp-1185238,LiTiPd2,"Li, Pd, Ti",3,0.0,Cubic,225,Fm-3m,0.0,True,True
mp-861656,Ti2CrIr,"Cr, Ir, Ti",3,0.0,Cubic,225,Fm-3m,0.0,True,True
mp-977582,ZrZnRh2,"Rh, Zn, Zr",3,0.0,Cubic,225,Fm-3m,0.0,True,True
mp-865001,HfScOs2,"Hf, Os, Sc",3,0.0,Cubic,225,Fm-3m,0.0,True,True
mp-867911,ScCdPd2,"Cd, Pd, Sc",3,0.0,Cubic,225,Fm-3m,0.0,True,True
mp-865165,HfScCo2,"Co, Hf, Sc",3,0.0,Cubic,225,Fm-3m,0.0,True,True
mp-1207398,Zr6Be15Pd8,"Be, Pd, Zr",3,0.0,Cubic,225,Fm-3m,0.0,True,True
mp-861637,Ti2AlTc,"Al, Tc, Ti",3,0.0,Cubic,225,Fm-3m,0.0,True,True
mp-1187213,Ta2ReOs,"Os, Re, Ta",3,0.0,Cubic,225,Fm-3m,0.0,True,True
mp-866219,HfSnRu2,"Hf, Ru, Sn",3,0.0,Cubic,225,Fm-3m,0.0,True,True
mp-862486,Sc2AlOs,"Al, Os, Sc",3,0.0,Cubic,225,Fm-3m,0.0,True,True
mp-865989,Al2IrRu,"Al, Ir, Ru",3,0.0,Cubic,225,Fm-3m,0.0,True,True
mp-1185762,Mg2CdRh,"Cd, Mg, Rh",3,0.02131258000000047,Cubic,225,Fm-3m,0.0,True,True
mp-1185212,LiCd2Ni,"Cd, Li, Ni",3,0.05500851625000003,Cubic,225,Fm-3m,0.0,True,True
mp-1183163,AlFeIr2,"Al, Fe, Ir",3,0.01796346916666902,Cubic,225,Fm-3m,0.0,True,True
mp-862610,LiHfIr2,"Hf, Ir, Li",3,0.0,Cubic,225,Fm-3m,0.0,True,True
mp-867820,LiAlPd2,"Al, Li, Pd",3,0.0,Cubic,225,Fm-3m,0.0,True,True
mp-1193840,Zr6Al16Pd7,"Al, Pd, Zr",3,0.0,Cubic,225,Fm-3m,0.0,False,True
mp-1194111,Zr6Ga16Os7,"Ga, Os, Zr",3,0.07569403586956369,Cubic,225,Fm-3m,0.0,False,True
mp-866284,Al2IrOs,"Al, Ir, Os",3,0.0,Cubic,225,Fm-3m,0.0,True,True
mp-1187436,Ti2CuRe,"Cu, Re, Ti",3,0.0,Cubic,225,Fm-3m,0.0,True,True
mp-865868,LiZrRh2,"Li, Rh, Zr",3,0.0,Cubic,225,Fm-3m,0.0,True,True
mp-1187711,Y2GaAg,"Ag, Ga, Y",3,0.009130138749998906,Cubic,225,Fm-3m,0.0,True,True
mp-2927,LiAg2Sn,"Ag, Li, Sn",3,0.0,Cubic,225,Fm-3m,0.0,False,True
mp-1185377,LiMg2Ni,"Li, Mg, Ni",3,0.011791346631944588,Cubic,225,Fm-3m,0.0,True,True
mp-977556,MgScCd2,"Cd, Mg, Sc",3,0.0,Cubic,225,Fm-3m,0.0,True,True
mp-1186759,Ta2OsRu,"Os, Ru, Ta",3,0.026476593125003944,Cubic,225,Fm-3m,0.0,True,True
mp-16524,ScAlPd2,"Al, Pd, Sc",3,0.0,Cubic,225,Fm-3m,0.0,False,True
mp-1183281,Ba2CdIn,"Ba, Cd, In",3,0.0018477962499989786,Cubic,225,Fm-3m,0.0,True,True
mp-1185365,LiMg2Au,"Au, Li, Mg",3,0.0,Cubic,225,Fm-3m,0.0,True,True
mp-977353,Ta2ReMo,"Mo, Re, Ta",3,0.0,Cubic,225,Fm-3m,0.0,True,True
mp-1186763,Ta2MoW,"Mo, Ta, W",3,0.0,Cubic,225,Fm-3m,0.0,True,True
mp-977418,LiMgAu2,"Au, Li, Mg",3,0.0,Cubic,225,Fm-3m,0.0,True,True
mp-864945,MnBe2Rh,"Be, Mn, Rh",3,0.0,Cubic,225,Fm-3m,0.0,True,True
mp-977537,ZrCdRh2,"Cd, Rh, Zr",3,0.0,Cubic,225,Fm-3m,0.0,True,True
mp-19929,MgInNi2,"In, Mg, Ni",3,0.0,Cubic,225,Fm-3m,0.0,False,True
mp-1185321,LiAl2Au,"Al, Au, Li",3,0.015241723749998215,Cubic,225,Fm-3m,0.0,True,True
mp-867253,LiZn2Ir,"Ir, Li, Zn",3,0.0,Cubic,225,Fm-3m,0.0,True,True
mp-1187984,Zr2FeTc,"Fe, Tc, Zr",3,0.0,Cubic,225,Fm-3m,0.0,True,True
mp-977554,MgScAg2,"Ag, Mg, Sc",3,0.0,Cubic,225,Fm-3m,0.0,True,True
mp-865779,Ga2CoRu,"Co, Ga, Ru",3,0.05598914999999671,Cubic,225,Fm-3m,0.0,True,True
mp-861643,CaLaMg2,"Ca, La, Mg",3,0.0,Cubic,225,Fm-3m,0.0,True,True
mp-1184576,HfBeIr2,"Be, Hf, Ir",3,0.01651174750000095,Cubic,225,Fm-3m,0.0,True,True
mp-867915,ScGaCo2,"Co, Ga, Sc",3,0.0030316987500018655,Cubic,225,Fm-3m,0.0,True,True
mp-866193,Li2LaIn,"In, La, Li",3,0.0,Cubic,225,Fm-3m,0.11169999999999991,True,False
mp-865308,Be2CuRh,"Be, Cu, Rh",3,0.0,Cubic,225,Fm-3m,0.0,True,True
mp-867810,LiYHg2,"Hg, Li, Y",3,0.0,Cubic,225,Fm-3m,0.0,True,True
mp-866157,TiGaRh2,"Ga, Rh, Ti",3,0.0,Cubic,225,Fm-3m,0.0,True,True
mp-1193679,Zr6Al16Ni7,"Al, Ni, Zr",3,0.0,Cubic,225,Fm-3m,0.0,False,True
mp-866142,TiGaIr2,"Ga, Ir, Ti",3,0.00010071450000204152,Cubic,225,Fm-3m,0.0,True,True
mp-865487,VZnRh2,"Rh, V, Zn",3,0.0,Cubic,225,Fm-3m,0.0,True,True
mp-978267,Mg2ZnRh,"Mg, Rh, Zn",3,0.014426390789473054,Cubic,225,Fm-3m,0.0,True,True
mp-864920,MgZrAu2,"Au, Mg, Zr",3,0.0,Cubic,225,Fm-3m,0.0,True,True