material_id,formula,elements,num_elements,energy_above_hull,crystal_system,spacegroup_number,spacegroup_symbol,band_gap,theoretical,is_metal,electronegativity_difference,atomic_concentrations
mp-1184587,Hf2MnOs,"Hf, Mn, Os",3,0.009691738645834391,Cubic,225,Fm-3m,0.0,True,True,0.3680607966083865,Hf: 0.5000; Mn: 0.2500; Os: 0.2500
mp-1187720,Y2AgAu,"Ag, Au, Y",3,0.011026152499997721,Cubic,225,Fm-3m,0.0,True,True,0.5514242921743655,Y: 0.5000; Ag: 0.2500; Au: 0.2500
mp-977463,MgMnRh2,"Mg, Mn, Rh",3,0.0,Cubic,225,Fm-3m,0.0,True,True,0.4333878170876518,Mg: 0.2500; Mn: 0.2500; Rh: 0.5000
mp-865097,NaHgPd2,"Hg, Na, Pd",3,0.0,Cubic,225,Fm-3m,0.0,True,True,0.527417055090182,Na: 0.2500; Hg: 0.2500; Pd: 0.5000
mp-1185375,LiLaAu2,"Au, La, Li",3,0.010424881250001405,Cubic,225,Fm-3m,0.0,True,True,0.7511990415329349,Li: 0.2500; La: 0.2500; Au: 0.5000
mp-864877,Hf2CoRe,"Co, Hf, Re",3,0.06133369991379212,Cubic,225,Fm-3m,0.0,True,True,0.29508473359358994,Hf: 0.5000; Co: 0.2500; Re: 0.2500
mp-865021,Be2RuPt,"Be, Pt, Ru",3,0.0,Cubic,225,Fm-3m,0.0,True,True,0.33619190948028477,Be: 0.5000; Ru: 0.2500; Pt: 0.2500
mp-1185062,La2MgCd,"Cd, La, Mg",3,0.010146166250001976,Cubic,225,Fm-3m,0.0,True,True,0.2409356760631351,La: 0.5000; Mg: 0.2500; Cd: 0.2500
mp-22221,MnCu2Sn,"Cu, Mn, Sn",3,0.09683388051724151,Cubic,225,Fm-3m,0.0,False,True,0.16207637088730728,Mn: 0.2500; Cu: 0.5000; Sn: 0.2500
mp-864989,Mn2AlRe,"Al, Mn, Re",3,0.0,Cubic,225,Fm-3m,0.0,True,True,0.14497844667397972,Mn: 0.5000; Al: 0.2500; Re: 0.2500
mp-1187718,Y2CuOs,"Cu, Os, Y",3,0.031518477500000586,Cubic,225,Fm-3m,0.0,True,True,0.42833981836854723,Y: 0.5000; Cu: 0.2500; Os: 0.2500
mp-20840,MnCo2Sn,"Co, Mn, Sn",3,0.0,Cubic,225,Fm-3m,0.0,False,True,0.15785673884886886,Mn: 0.2500; Co: 0.5000; Sn: 0.2500
mp-862256,Cu2PdAu,"Au, Cu, Pd",3,0.0,Cubic,225,Fm-3m,0.0,True,True,0.2639602242763103,Cu: 0.5000; Pd: 0.2500; Au: 0.2500
mp-1185359,LiMg2Cd,"Cd, Li, Mg",3,0.0,Cubic,225,Fm-3m,0.0,True,True,0.2513339412017406,Li: 0.2500; Mg: 0.5000; Cd: 0.2500
mp-865964,Li2CaSn,"Ca, Li, Sn",3,0.0,Cubic,225,Fm-3m,0.0,True,True,0.4215447781671598,Li: 0.5000; Ca: 0.2500; Sn: 0.2500
mp-1187068,Sr2GaHg,"Ga, Hg, Sr",3,0.019191001805556773,Cubic,225,Fm-3m,0.0,True,True,0.48220198050194696,Sr: 0.5000; Ga: 0.2500; Hg: 0.2500
mp-866156,YGaRh2,"Ga, Rh, Y",3,0.0,Cubic,225,Fm-3m,0.0,True,True,0.43568193673825856,Y: 0.2500; Ga: 0.2500; Rh: 0.5000
mp-984721,BeGaCo2,"Be, Co, Ga",3,0.00802906250000035,Cubic,225,Fm-3m,0.0,True,True,0.1273773920285699,Be: 0.2500; Ga: 0.2500; Co: 0.5000
mp-1185317,LiBe2Pt,"Be, Li, Pt",3,0.0,Cubic,225,Fm-3m,0.0,True,True,0.4605974381170611,Li: 0.2500; Be: 0.5000; Pt: 0.2500
mp-861663,LiRh2Pb,"Li, Pb, Rh",3,0.0,Cubic,225,Fm-3m,0.0,True,True,0.5704986853622013,Li: 0.2500; Rh: 0.5000; Pb: 0.2500
mp-865499,V2TcOs,"Os, Tc, V",3,0.0,Cubic,225,Fm-3m,0.0,True,True,0.23526580712037196,V: 0.5000; Tc: 0.2500; Os: 0.2500
mp-1185957,MgScIr2,"Ir, Mg, Sc",3,0.004180634144735684,Cubic,225,Fm-3m,0.0,True,True,0.43286112091524237,Mg: 0.2500; Sc: 0.2500; Ir: 0.5000
mp-864650,Ta2OsW,"Os, Ta, W",3,0.0,Cubic,225,Fm-3m,0.0,True,True,0.3940812099047606,Ta: 0.5000; Os: 0.2500; W: 0.2500
mp-1188059,ZrGaRu2,"Ga, Ru, Zr",3,0.0,Cubic,225,Fm-3m,0.0,True,True,0.3578058132562969,Zr: 0.2500; Ga: 0.2500; Ru: 0.5000
mp-862473,Sc2AgRu,"Ag, Ru, Sc",3,0.0,Cubic,225,Fm-3m,0.0,True,True,0.3651968647181955,Sc: 0.5000; Ag: 0.2500; Ru: 0.2500
mp-977382,Ta2VRu,"Ru, Ta, V",3,0.0,Cubic,225,Fm-3m,0.0,True,True,0.2892555098870202,Ta: 0.5000; V: 0.2500; Ru: 0.2500
mp-1185358,LiMgCd2,"Cd, Li, Mg",3,0.004020874166665855,Cubic,225,Fm-3m,0.0,True,True,0.29642663510555184,Li: 0.2500; Mg: 0.2500; Cd: 0.5000
mp-867171,SrLi2Sn,"Li, Sn, Sr",3,0.0,Cubic,225,Fm-3m,0.0,True,True,0.4288574938135044,Sr: 0.2500; Li: 0.5000; Sn: 0.2500
mp-1193571,Sc6Ga16Rh7,"Ga, Rh, Sc",3,0.005756664581737958,Cubic,225,Fm-3m,0.0,False,True,0.30790149296454833,Sc: 0.2069; Ga: 0.5517; Rh: 0.2414
mp-1183953,CsKRb2,"Cs, K, Rb",3,0.030976172023706394,Cubic,225,Fm-3m,0.0,True,True,0.012990381056766543,Cs: 0.2500; K: 0.2500; Rb: 0.5000
mp-972898,Sc2GaAu,"Au, Ga, Sc",3,0.023590276249997544,Cubic,225,Fm-3m,0.0,True,True,0.48235749190823185,Sc: 0.5000; Ga: 0.2500; Au: 0.2500
mp-981368,Zn2PdPt,"Pd, Pt, Zn",3,0.009113717499999119,Cubic,225,Fm-3m,0.0,True,True,0.2963528302547489,Zn: 0.5000; Pd: 0.2500; Pt: 0.2500
mp-21235,Mn2VGa,"Ga, Mn, V",3,0.0,Cubic,225,Fm-3m,0.0,False,True,0.10618380290797652,Mn: 0.5000; V: 0.2500; Ga: 0.2500
mp-864840,NbZnRu2,"Nb, Ru, Zn",3,0.0,Cubic,225,Fm-3m,0.0,True,True,0.2880429655450729,Nb: 0.2500; Zn: 0.2500; Ru: 0.5000
mp-1194145,Zr6Ga16Pd7,"Ga, Pd, Zr",3,0.038117471810345194,Cubic,225,Fm-3m,0.0,False,True,0.29044105211943194,Zr: 0.2069; Ga: 0.5517; Pd: 0.2414
mp-864950,MnAlIr2,"Al, Ir, Mn",3,0.0,Cubic,225,Fm-3m,0.0,True,True,0.310724958765787,Mn: 0.2500; Al: 0.2500; Ir: 0.5000
mp-973141,ScCdCu2,"Cd, Cu, Sc",3,0.0033742649999979335,Cubic,225,Fm-3m,0.0,True,True,0.22083647796503178,Sc: 0.2500; Cd: 0.2500; Cu: 0.5000
mp-862293,La2AgIr,"Ag, Ir, La",3,0.07600533124999487,Cubic,225,Fm-3m,0.0,True,True,0.4918523660611993,La: 0.5000; Ag: 0.2500; Ir: 0.2500
mp-1208242,Ti6Be15Cu8,"Be, Cu, Ti",3,0.0,Cubic,225,Fm-3m,0.0,True,True,0.15176253432651968,Ti: 0.2069; Be: 0.5172; Cu: 0.2759
mp-979910,VCuRh2,"Cu, Rh, V",3,0.0,Cubic,225,Fm-3m,0.0,True,True,0.27462474396892933,V: 0.2500; Cu: 0.2500; Rh: 0.5000
mp-973847,La2ZnGa,"Ga, La, Zn",3,0.025233581875003352,Cubic,225,Fm-3m,0.0,True,True,0.32003906011610517,La: 0.5000; Zn: 0.2500; Ga: 0.2500
mp-1183579,CaLaAu2,"Au, Ca, La",3,0.0,Cubic,225,Fm-3m,0.0,True,True,0.7458384543585829,Ca: 0.2500; La: 0.2500; Au: 0.5000
mp-862340,Sc2GaCu,"Cu, Ga, Sc",3,0.0,Cubic,225,Fm-3m,0.0,True,True,0.24953707139421183,Sc: 0.5000; Ga: 0.2500; Cu: 0.2500
mp-862338,Sc2CuRu,"Cu, Ru, Sc",3,0.0,Cubic,225,Fm-3m,0.0,True,True,0.36093628246547893,Sc: 0.5000; Cu: 0.2500; Ru: 0.2500
mp-30759,LiMg2Tl,"Li, Mg, Tl",3,0.02752258750000025,Cubic,225,Fm-3m,0.0,False,True,0.22632940595512555,Li: 0.2500; Mg: 0.5000; Tl: 0.2500
mp-866163,YInRh2,"In, Rh, Y",3,0.0,Cubic,225,Fm-3m,0.0,True,True,0.4373785545725807,Y: 0.2500; In: 0.2500; Rh: 0.5000
mp-1206110,MnCuPt6,"Cu, Mn, Pt",3,0.025806643333331714,Cubic,225,Fm-3m,0.0,True,True,0.25575562066159946,Mn: 0.1250; Cu: 0.1250; Pt: 0.7500
mp-977115,NaSrHg2,"Hg, Na, Sr",3,0.007105399375001653,Cubic,225,Fm-3m,0.0,True,True,0.5300471677124594,Na: 0.2500; Sr: 0.2500; Hg: 0.5000
mp-1185624,MgZrNi2,"Mg, Ni, Zr",3,0.011208180625001063,Cubic,225,Fm-3m,0.0,True,True,0.29508473359358994,Mg: 0.2500; Zr: 0.2500; Ni: 0.5000
mp-30758,Li2MgPb,"Li, Mg, Pb",3,0.028502059999997442,Cubic,225,Fm-3m,0.0,False,True,0.5535792626173781,Li: 0.5000; Mg: 0.2500; Pb: 0.2500
mp-1185761,Mg2CdPd,"Cd, Mg, Pd",3,0.025942002916667484,Cubic,225,Fm-3m,0.0,True,True,0.3651284020724765,Mg: 0.5000; Cd: 0.2500; Pd: 0.2500
mp-862445,TaAlOs2,"Al, Os, Ta",3,0.0,Cubic,225,Fm-3m,0.0,True,True,0.3248364973336587,Ta: 0.2500; Al: 0.2500; Os: 0.5000
mp-863690,Ti2MnCo,"Co, Mn, Ti",3,0.0,Cubic,225,Fm-3m,0.0,True,True,0.14583809516035234,Ti: 0.5000; Mn: 0.2500; Co: 0.2500
mp-865002,CaYRh2,"Ca, Rh, Y",3,0.001578520486111401,Cubic,225,Fm-3m,0.0,True,True,0.590148286450109,Ca: 0.2500; Y: 0.2500; Rh: 0.5000
mp-1185323,LiHfAu2,"Au, Hf, Li",3,0.01324980374999285,Cubic,225,Fm-3m,0.0,True,True,0.7090839160494334,Li: 0.2500; Hf: 0.2500; Au: 0.5000
mp-867798,La2AgRu,"Ag, La, Ru",3,0.05268616839285656,Cubic,225,Fm-3m,0.0,True,True,0.4918523660611993,La: 0.5000; Ag: 0.2500; Ru: 0.2500
mp-864927,Hf2ReOs,"Hf, Os, Re",3,0.01922075509999921,Cubic,225,Fm-3m,0.0,True,True,0.3897114317029974,Hf: 0.5000; Re: 0.2500; Os: 0.2500
mp-16482,TiAlAu2,"Al, Au, Ti",3,0.02832234666666622,Cubic,225,Fm-3m,0.0,False,True,0.48313429809940006,Ti: 0.2500; Al: 0.2500; Au: 0.5000
mp-1183158,AlGaIr2,"Al, Ga, Ir",3,0.012601042500001824,Cubic,225,Fm-3m,0.0,True,True,0.25500000000000006,Al: 0.2500; Ga: 0.2500; Ir: 0.5000
mp-640898,La6Mg22Al,"Al, La, Mg",3,0.05154074594827662,Cubic,225,Fm-3m,0.0,False,True,0.10550709890402576,La: 0.2069; Mg: 0.7586; Al: 0.0345
mp-1187420,Ti2MoOs,"Mo, Os, Ti",3,0.021620270000003217,Cubic,225,Fm-3m,0.0,True,True,0.3203123475609394,Ti: 0.5000; Mo: 0.2500; Os: 0.2500
mp-975780,Li2TlSn,"Li, Sn, Tl",3,0.00692713083333274,Cubic,225,Fm-3m,0.0,True,True,0.4224630161327735,Li: 0.5000; Tl: 0.2500; Sn: 0.2500
mp-1184983,Li2CdBi,"Bi, Cd, Li",3,0.014334680000001043,Cubic,225,Fm-3m,0.0,True,True,0.4527899623445732,Li: 0.5000; Cd: 0.2500; Bi: 0.2500
mp-12128,Li2MgIn,"In, Li, Mg",3,0.0,Cubic,225,Fm-3m,0.0,False,True,0.3277479977055543,Li: 0.5000; Mg: 0.2500; In: 0.2500
mp-862318,LiAl2Ni,"Al, Li, Ni",3,0.0,Cubic,225,Fm-3m,0.0,True,True,0.3389966813996857,Li: 0.2500; Al: 0.5000; Ni: 0.2500
mp-978266,Mg2ZnPt,"Mg, Pt, Zn",3,0.019372948928570555,Cubic,225,Fm-3m,0.0,True,True,0.3960665979352461,Mg: 0.5000; Zn: 0.2500; Pt: 0.2500
mp-861932,LiZnAu2,"Au, Li, Zn",3,0.0,Cubic,225,Fm-3m,0.0,True,True,0.6567105526790323,Li: 0.2500; Zn: 0.2500; Au: 0.5000
mp-866162,YMgAg2,"Ag, Mg, Y",3,0.0,Cubic,225,Fm-3m,0.0,True,True,0.3340190862810088,Y: 0.2500; Mg: 0.2500; Ag: 0.5000
mp-977568,ZrSnPd2,"Pd, Sn, Zr",3,0.04967313333332868,Cubic,225,Fm-3m,0.0,True,True,0.3558352849282938,Zr: 0.2500; Sn: 0.2500; Pd: 0.5000
mp-864965,Mg2RhAu,"Au, Mg, Rh",3,0.0,Cubic,225,Fm-3m,0.0,True,True,0.5576289088632331,Mg: 0.5000; Rh: 0.2500; Au: 0.2500
mp-865155,MgAlRh2,"Al, Mg, Rh",3,0.0,Cubic,225,Fm-3m,0.0,True,True,0.4234973435571939,Mg: 0.2500; Al: 0.2500; Rh: 0.5000
mp-867198,LiGaPd2,"Ga, Li, Pd",3,0.0,Cubic,225,Fm-3m,0.0,True,True,0.49811519751961,Li: 0.2500; Ga: 0.2500; Pd: 0.5000
mp-865101,NaLi2Bi,"Bi, Li, Na",3,0.0,Cubic,225,Fm-3m,0.32509999999999994,True,False,0.45800518556016373,Na: 0.2500; Li: 0.5000; Bi: 0.2500
mp-567959,Sr11Ga4Sn3,"Ga, Sn, Sr",3,0.0005896624603174416,Cubic,225,Fm-3m,0.0,False,True,0.4529590639122336,Sr: 0.6111; Ga: 0.2222; Sn: 0.1667
mp-1186006,MnV2Ru,"Mn, Ru, V",3,0.048536869166667884,Cubic,225,Fm-3m,0.0,True,True,0.26042033330752046,Mn: 0.2500; V: 0.5000; Ru: 0.2500
mp-1186196,NaYTl2,"Na, Tl, Y",3,0.0,Cubic,225,Fm-3m,0.0,True,True,0.2911507341567251,Na: 0.2500; Y: 0.2500; Tl: 0.5000
mp-20440,MnNi2Sn,"Mn, Ni, Sn",3,0.01119294053519937,Cubic,225,Fm-3m,0.0,False,True,0.16437381178277757,Mn: 0.2500; Ni: 0.5000; Sn: 0.2500
mp-867788,TaGaOs2,"Ga, Os, Ta",3,0.0,Cubic,225,Fm-3m,0.0,True,True,0.2937154234969625,Ta: 0.2500; Ga: 0.2500; Os: 0.5000
mp-1188001,Zr2TcIr,"Ir, Tc, Zr",3,0.0,Cubic,225,Fm-3m,0.0,True,True,0.3752998800959041,Zr: 0.5000; Tc: 0.2500; Ir: 0.2500
mp-1187090,Sr2LiRh,"Li, Rh, Sr",3,0.010137876505680321,Cubic,225,Fm-3m,0.12449999999999983,True,False,0.5717079674099356,Sr: 0.5000; Li: 0.2500; Rh: 0.2500
mp-862311,Sc2GaRu,"Ga, Ru, Sc",3,0.0,Cubic,225,Fm-3m,0.0,True,True,0.3507402885326977,Sc: 0.5000; Ga: 0.2500; Ru: 0.2500
mp-976114,Li2CdHg,"Cd, Hg, Li",3,0.0006501099999987048,Cubic,225,Fm-3m,0.0,True,True,0.4461712115320754,Li: 0.5000; Cd: 0.2500; Hg: 0.2500
mp-1186207,Nb2ReRu,"Nb, Re, Ru",3,0.0,Cubic,225,Fm-3m,0.0,True,True,0.248746859276655,Nb: 0.5000; Re: 0.2500; Ru: 0.2500
mp-1185749,Mg2AgPd,"Ag, Mg, Pd",3,0.008508659999999946,Cubic,225,Fm-3m,0.0,True,True,0.38938252400435236,Mg: 0.5000; Ag: 0.2500; Pd: 0.2500
mp-865462,MnV2Os,"Mn, Os, V",3,0.011769333879318111,Cubic,225,Fm-3m,0.0,True,True,0.26042033330752046,Mn: 0.2500; V: 0.5000; Os: 0.2500
mp-867179,SrCdHg2,"Cd, Hg, Sr",3,0.008872362465274897,Cubic,225,Fm-3m,0.0,True,True,0.4290104893822528,Sr: 0.2500; Cd: 0.2500; Hg: 0.5000
mp-30595,CuSnRh2,"Cu, Rh, Sn",3,0.0,Cubic,225,Fm-3m,0.0,False,True,0.17628102563804188,Cu: 0.2500; Sn: 0.2500; Rh: 0.5000
mp-1185418,LiZnPt2,"Li, Pt, Zn",3,0.0,Cubic,225,Fm-3m,0.0,True,True,0.5375116277812043,Li: 0.2500; Zn: 0.2500; Pt: 0.5000
mp-866164,YMgHg2,"Hg, Mg, Y",3,0.0,Cubic,225,Fm-3m,0.0,True,True,0.3688749788207381,Y: 0.2500; Mg: 0.2500; Hg: 0.5000
mp-862264,Sc2ZnTc,"Sc, Tc, Zn",3,0.0005834278125007586,Cubic,225,Fm-3m,0.0,True,True,0.22554101622543063,Sc: 0.5000; Zn: 0.2500; Tc: 0.2500
mp-865524,YCdPt2,"Cd, Pt, Y",3,0.012575528749997567,Cubic,225,Fm-3m,0.0,True,True,0.4447119854467607,Y: 0.2500; Cd: 0.2500; Pt: 0.5000
mp-1194036,Hf6Zn16Cu7,"Cu, Hf, Zn",3,0.0,Cubic,225,Fm-3m,0.0,False,True,0.2007121684255896,Hf: 0.2069; Zn: 0.5517; Cu: 0.2414
mp-31171,Zn2AgAu,"Ag, Au, Zn",3,0.0,Cubic,225,Fm-3m,0.0,False,True,0.36341264424893094,Zn: 0.5000; Ag: 0.2500; Au: 0.2500
mp-1187722,Y2TlHg,"Hg, Tl, Y",3,0.0,Cubic,225,Fm-3m,0.0,True,True,0.32415274177461467,Y: 0.5000; Tl: 0.2500; Hg: 0.2500
mp-865019,HfGaRh2,"Ga, Hf, Rh",3,0.0,Cubic,225,Fm-3m,0.0,True,True,0.40486880591124813,Hf: 0.2500; Ga: 0.2500; Rh: 0.5000
mp-1187707,Y2AlCd,"Al, Cd, Y",3,0.0031007727083336434,Cubic,225,Fm-3m,0.0,True,True,0.21685248442201444,Y: 0.5000; Al: 0.2500; Cd: 0.2500
mp-4913,LiGa2Rh,"Ga, Li, Rh",3,0.0,Cubic,225,Fm-3m,0.0,False,True,0.4683481610938597,Li: 0.2500; Ga: 0.5000; Rh: 0.2500
mp-1194264,Sc6Al16Ni7,"Al, Ni, Sc",3,0.014458375517241606,Cubic,225,Fm-3m,0.0,False,True,0.18500570418946463,Sc: 0.2069; Al: 0.5517; Ni: 0.2414
mp-22580,ZrGaNi2,"Ga, Ni, Zr",3,0.016642819502688866,Cubic,225,Fm-3m,0.0,False,True,0.24020824298928622,Zr: 0.2500; Ga: 0.2500; Ni: 0.5000
mp-11400,ScGaNi2,"Ga, Ni, Sc",3,0.0,Cubic,225,Fm-3m,0.0,False,True,0.22741756748325306,Sc: 0.2500; Ga: 0.2500; Ni: 0.5000
mp-867958,TaInRu2,"In, Ru, Ta",3,0.0,Cubic,225,Fm-3m,0.0,True,True,0.2969848480983501,Ta: 0.2500; In: 0.2500; Ru: 0.5000
mp-1186936,Sc2CoNi,"Co, Ni, Sc",3,0.01118606749999973,Cubic,225,Fm-3m,0.0,True,True,0.26771019778857874,Sc: 0.5000; Co: 0.2500; Ni: 0.2500
mp-865442,TiAlOs2,"Al, Os, Ti",3,0.0,Cubic,225,Fm-3m,0.0,True,True,0.31347846816009556,Ti: 0.2500; Al: 0.2500; Os: 0.5000
mp-980948,SrCaIn2,"Ca, In, Sr",3,0.02812848656249889,Cubic,225,Fm-3m,0.0,True,True,0.40288801173527117,Sr: 0.2500; Ca: 0.2500; In: 0.5000
mp-862600,Be2PtRh,"Be, Pt, Rh",3,0.0,Cubic,225,Fm-3m,0.0,True,True,0.35499999999999987,Be: 0.5000; Pt: 0.2500; Rh: 0.2500
mp-865174,HfCdRh2,"Cd, Hf, Rh",3,0.0,Cubic,225,Fm-3m,0.0,True,True,0.4160153242369804,Hf: 0.2500; Cd: 0.2500; Rh: 0.5000
mp-867116,BeGaIr2,"Be, Ga, Ir",3,0.0,Cubic,225,Fm-3m,0.0,True,True,0.2687470930075338,Be: 0.2500; Ga: 0.2500; Ir: 0.5000
mp-971738,ZnCuNi2,"Cu, Ni, Zn",3,0.007258229999999699,Cubic,225,Fm-3m,0.0,True,True,0.11121488209767612,Zn: 0.2500; Cu: 0.2500; Ni: 0.5000
mp-864919,MgTiRh2,"Mg, Rh, Ti",3,0.0,Cubic,225,Fm-3m,0.0,True,True,0.43516519851660923,Mg: 0.2500; Ti: 0.2500; Rh: 0.5000
mp-1187768,Y2ZnGa,"Ga, Y, Zn",3,0.00638213375000074,Cubic,225,Fm-3m,0.0,True,True,0.26119915773217955,Y: 0.5000; Zn: 0.2500; Ga: 0.2500
mp-1184582,HfNbRu2,"Hf, Nb, Ru",3,0.020769837499997834,Cubic,225,Fm-3m,0.0,True,True,0.38971143170299744,Hf: 0.2500; Nb: 0.2500; Ru: 0.5000
mp-1186125,NaCd2Pd,"Cd, Na, Pd",3,0.013825446272521802,Cubic,225,Fm-3m,0.0,True,True,0.45334175850014086,Na: 0.2500; Cd: 0.5000; Pd: 0.2500
mp-10899,AlVNi2,"Al, Ni, V",3,0.04628494739583289,Cubic,225,Fm-3m,0.0,False,True,0.14517231140957973,Al: 0.2500; V: 0.2500; Ni: 0.5000
mp-973564,La2TlZn,"La, Tl, Zn",3,0.014424927499996798,Cubic,225,Fm-3m,0.0,True,True,0.2677101977885788,La: 0.5000; Tl: 0.2500; Zn: 0.2500
mp-867117,Sc2CuPt,"Cu, Pt, Sc",3,0.0,Cubic,225,Fm-3m,0.0,True,True,0.38894086954188795,Sc: 0.5000; Cu: 0.2500; Pt: 0.2500
mp-30821,LiAl2Rh,"Al, Li, Rh",3,0.0,Cubic,225,Fm-3m,0.0,False,True,0.4597281805589037,Li: 0.2500; Al: 0.5000; Rh: 0.2500
mp-20521,ScInPt2,"In, Pt, Sc",3,0.0,Cubic,225,Fm-3m,0.0,False,True,0.38480514549574296,Sc: 0.2500; In: 0.2500; Pt: 0.5000
mp-862553,Sc2BeRu,"Be, Ru, Sc",3,0.039438873928571816,Cubic,225,Fm-3m,0.0,True,True,0.34426552252585507,Sc: 0.5000; Be: 0.2500; Ru: 0.2500
mp-865167,Ca2CdPb,"Ca, Cd, Pb",3,0.0,Cubic,225,Fm-3m,0.0,True,True,0.5533760023709016,Ca: 0.5000; Cd: 0.2500; Pb: 0.2500
mp-1187072,Sr2CdGa,"Cd, Ga, Sr",3,0.021435529305556145,Cubic,225,Fm-3m,0.0,True,True,0.40224370722237535,Sr: 0.5000; Cd: 0.2500; Ga: 0.2500
mp-865126,NaTlPd2,"Na, Pd, Tl",3,0.0,Cubic,225,Fm-3m,0.0,True,True,0.5228945878473023,Na: 0.2500; Tl: 0.2500; Pd: 0.5000
mp-861624,LiLaHg2,"Hg, La, Li",3,0.0,Cubic,225,Fm-3m,0.0,True,True,0.4818713521262703,Li: 0.2500; La: 0.2500; Hg: 0.5000
mp-1185894,MgMnIr2,"Ir, Mg, Mn",3,0.02843825296874769,Cubic,225,Fm-3m,0.0,True,True,0.3942397747564292,Mg: 0.2500; Mn: 0.2500; Ir: 0.5000
mp-1183299,BaHg2Bi,"Ba, Bi, Hg",3,0.0021709874999986667,Cubic,225,Fm-3m,0.0,True,True,0.48359978287836314,Ba: 0.2500; Hg: 0.5000; Bi: 0.2500
mp-1185975,MgTiCo2,"Co, Mg, Ti",3,0.021323858750000646,Cubic,225,Fm-3m,0.0,True,True,0.24159625411003366,Mg: 0.2500; Ti: 0.2500; Co: 0.5000
mp-1185018,La2RuAu,"Au, La, Ru",3,0.0613830551785739,Cubic,225,Fm-3m,0.0,True,True,0.6462778040440503,La: 0.5000; Ru: 0.2500; Au: 0.2500
mp-972884,Sc2AlCu,"Al, Cu, Sc",3,0.021006542500000336,Cubic,225,Fm-3m,0.0,True,True,0.22252808811473657,Sc: 0.5000; Al: 0.2500; Cu: 0.2500
mp-1018046,MnGaFe2,"Fe, Ga, Mn",3,0.03846181778286617,Cubic,225,Fm-3m,0.0,True,True,0.11863810517704673,Mn: 0.2500; Ga: 0.2500; Fe: 0.5000
mp-1183457,Ca2MgCd,"Ca, Cd, Mg",3,0.013381728437499518,Cubic,225,Fm-3m,0.0,True,True,0.2838133189263675,Ca: 0.5000; Mg: 0.2500; Cd: 0.2500
mp-1206745,LiMg2Pb,"Li, Mg, Pb",3,0.06043892937499917,Cubic,225,Fm-3m,0.0,True,True,0.5075123151215151,Li: 0.2500; Mg: 0.5000; Pb: 0.2500
mp-976330,LiZr2Ir,"Ir, Li, Zr",3,0.026766439375006,Cubic,225,Fm-3m,0.0,True,True,0.4504997225304363,Li: 0.2500; Zr: 0.5000; Ir: 0.2500
mp-636599,FeSnRu2,"Fe, Ru, Sn",3,0.05873314607142888,Cubic,225,Fm-3m,0.0,False,True,0.1592757043619648,Fe: 0.2500; Sn: 0.2500; Ru: 0.5000
mp-867167,LiCa2Tl,"Ca, Li, Tl",3,0.0,Cubic,225,Fm-3m,0.0,True,True,0.2714774392099646,Li: 0.2500; Ca: 0.5000; Tl: 0.2500
mp-867877,LiCdAu2,"Au, Cd, Li",3,0.0,Cubic,225,Fm-3m,0.0,True,True,0.652701118430174,Li: 0.2500; Cd: 0.2500; Au: 0.5000
mp-865925,LiZrIr2,"Ir, Li, Zr",3,0.0,Cubic,225,Fm-3m,0.0,True,True,0.5369532102520667,Li: 0.2500; Zr: 0.2500; Ir: 0.5000
mp-1187911,ZnGaCo2,"Co, Ga, Zn",3,0.036304687386364165,Cubic,225,Fm-3m,0.0,True,True,0.09394147114027968,Zn: 0.2500; Ga: 0.2500; Co: 0.5000
mp-30555,TaGaCo2,"Co, Ga, Ta",3,0.0,Cubic,225,Fm-3m,0.0,False,True,0.15706288549495068,Ta: 0.2500; Ga: 0.2500; Co: 0.5000
mp-1185178,La2SnHg,"Hg, La, Sn",3,0.011145494843749049,Cubic,225,Fm-3m,0.0,True,True,0.4402272140611027,La: 0.5000; Sn: 0.2500; Hg: 0.2500
mp-1184974,Li2ScIn,"In, Li, Sc",3,0.013468868214285834,Cubic,225,Fm-3m,0.07179999999999964,True,False,0.33026504507743476,Li: 0.5000; Sc: 0.2500; In: 0.2500
mp-983480,Hf6Al16Rh7,"Al, Hf, Rh",3,0.0,Cubic,225,Fm-3m,0.0,False,True,0.34455023328685486,Hf: 0.2069; Al: 0.5517; Rh: 0.2414
mp-1184572,HfMgPt2,"Hf, Mg, Pt",3,0.0,Cubic,225,Fm-3m,0.0,True,True,0.48751282034424476,Hf: 0.2500; Mg: 0.2500; Pt: 0.5000
mp-867840,BeFeRh2,"Be, Fe, Rh",3,0.0,Cubic,225,Fm-3m,0.0,True,True,0.304220314903525,Be: 0.2500; Fe: 0.2500; Rh: 0.5000
mp-1194423,Zr6Al16Co7,"Al, Co, Zr",3,0.0,Cubic,225,Fm-3m,0.0,False,True,0.1837520171453746,Zr: 0.2069; Al: 0.5517; Co: 0.2414
mp-865234,TaZnRu2,"Ru, Ta, Zn",3,0.0,Cubic,225,Fm-3m,0.0,True,True,0.31696805832764924,Ta: 0.2500; Zn: 0.2500; Ru: 0.5000
mp-1185364,LiMgAg2,"Ag, Li, Mg",3,0.0,Cubic,225,Fm-3m,0.0,True,True,0.40947374763225053,Li: 0.2500; Mg: 0.2500; Ag: 0.5000
mp-973443,Hf2ReTc,"Hf, Re, Tc",3,0.027327045099999836,Cubic,225,Fm-3m,0.0,True,True,0.29999999999999993,Hf: 0.5000; Re: 0.2500; Tc: 0.2500
mp-864990,Mn2AlW,"Al, Mn, W",3,0.0,Cubic,225,Fm-3m,0.0,True,True,0.3429559009552102,Mn: 0.5000; Al: 0.2500; W: 0.2500
mp-862374,CdInPd2,"Cd, In, Pd",3,0.0,Cubic,225,Fm-3m,0.0,True,True,0.23466731770743032,Cd: 0.2500; In: 0.2500; Pd: 0.5000
mp-4813,NbAlNi2,"Al, Nb, Ni",3,0.00719846491666587,Cubic,225,Fm-3m,0.0,False,True,0.15254097810096792,Nb: 0.2500; Al: 0.2500; Ni: 0.5000
mp-862431,Sc2AgOs,"Ag, Os, Sc",3,0.0,Cubic,225,Fm-3m,0.0,True,True,0.3651968647181955,Sc: 0.5000; Ag: 0.2500; Os: 0.2500
mp-980661,YTlAg2,"Ag, Tl, Y",3,0.02139166263482295,Cubic,225,Fm-3m,0.0,True,True,0.2915904662364666,Y: 0.2500; Tl: 0.2500; Ag: 0.5000
mp-5491,MnAlAu2,"Al, Au, Mn",3,0.0,Cubic,225,Fm-3m,0.0,False,True,0.480468521341409,Mn: 0.2500; Al: 0.2500; Au: 0.5000