material_id,formula,elements,num_elements,energy_above_hull,crystal_system,spacegroup_number,spacegroup_symbol,band_gap,theoretical,is_metal
mp-1187242,TaNbRe2,"Nb, Re, Ta",3,0.0,Cubic,225,Fm-3m,0.0,True,True
mp-22790,VGaCo2,"Co, Ga, V",3,0.0,Cubic,225,Fm-3m,0.0,False,True
mp-865655,TiNbTc2,"Nb, Tc, Ti",3,0.0,Cubic,225,Fm-3m,0.0,True,True
mp-1007821,GaCo2Ni,"Co, Ga, Ni",3,0.09440847634615324,Cubic,225,Fm-3m,0.0,True,True
mp-862717,LiAlAu2,"Al, Au, Li",3,0.0,Cubic,225,Fm-3m,0.0,True,True
mp-11360,ScGaCu2,"Cu, Ga, Sc",3,0.0,Cubic,225,Fm-3m,0.0,False,True
mp-20145,TiGaCo2,"Co, Ga, Ti",3,0.0,Cubic,225,Fm-3m,0.0,False,True
mp-977547,MgZnRh2,"Mg, Rh, Zn",3,0.0,Cubic,225,Fm-3m,0.0,True,True
mp-865525,YCdHg2,"Cd, Hg, Y",3,0.0,Cubic,225,Fm-3m,0.0,True,True
mp-1212464,Hf6Al16Ir7,"Al, Hf, Ir",3,0.0,Cubic,225,Fm-3m,0.0,True,True
mp-977440,LiTiPt2,"Li, Pt, Ti",3,0.0,Cubic,225,Fm-3m,0.0,True,True
mp-865602,Y2MgAl,"Al, Mg, Y",3,0.0,Cubic,225,Fm-3m,0.0,True,True
mp-864907,MgZrPd2,"Mg, Pd, Zr",3,0.0,Cubic,225,Fm-3m,0.0,True,True
mp-862375,Sc2TcHg,"Hg, Sc, Tc",3,0.061269083437499816,Cubic,225,Fm-3m,0.0,True,True
mp-10887,HfAlCu2,"Al, Cu, Hf",3,0.0,Cubic,225,Fm-3m,0.0,False,True
mp-867110,Sc2CoOs,"Co, Os, Sc",3,0.0,Cubic,225,Fm-3m,0.0,True,True
mp-1183482,Ca2CuRh,"Ca, Cu, Rh",3,0.03573959298611129,Cubic,225,Fm-3m,0.0,True,True
mp-865671,Y2ZnIn,"In, Y, Zn",3,0.0,Cubic,225,Fm-3m,0.0,True,True
mp-867912,Ba2SnHg,"Ba, Hg, Sn",3,0.0,Cubic,225,Fm-3m,0.03740000000000032,True,False
mp-1193568,Zr6Al16Ir7,"Al, Ir, Zr",3,0.0,Cubic,225,Fm-3m,0.0,False,True
mp-1186140,NaInPd2,"In, Na, Pd",3,0.029242815237068953,Cubic,225,Fm-3m,0.0,True,True
mp-864910,MgZrRh2,"Mg, Rh, Zr",3,0.0,Cubic,225,Fm-3m,0.0,True,True
mp-1185381,LiIn2Ni,"In, Li, Ni",3,0.017648548000016362,Cubic,225,Fm-3m,0.0,True,True
mp-866081,MgSc2Os,"Mg, Os, Sc",3,0.007761566145835452,Cubic,225,Fm-3m,0.0,True,True
mp-977567,Hf2CuRe,"Cu, Hf, Re",3,0.0,Cubic,225,Fm-3m,0.0,True,True
mp-1186011,MnV2Fe,"Fe, Mn, V",3,0.025323855937498863,Cubic,225,Fm-3m,0.0,True,True
mp-21301,ScInNi2,"In, Ni, Sc",3,0.0,Cubic,225,Fm-3m,0.0,False,True
mp-1186203,Nb2CrOs,"Cr, Nb, Os",3,0.06414934236110881,Cubic,225,Fm-3m,0.0,True,True
mp-1186003,MnZnAu2,"Au, Mn, Zn",3,0.0,Cubic,225,Fm-3m,0.0,True,True
mp-862699,ScTaOs2,"Os, Sc, Ta",3,0.0,Cubic,225,Fm-3m,0.0,True,True
mp-1186761,Ta2MnRe,"Mn, Re, Ta",3,0.0,Cubic,225,Fm-3m,0.0,True,True
mp-1186200,Nb2CrRu,"Cr, Nb, Ru",3,0.051379051250002306,Cubic,225,Fm-3m,0.0,True,True
mp-865711,Li2TlAu,"Au, Li, Tl",3,0.0,Cubic,225,Fm-3m,0.0,True,True
mp-1188003,Zr2TcRu,"Ru, Tc, Zr",3,0.0,Cubic,225,Fm-3m,0.0,True,True
mp-977438,MgInRh2,"In, Mg, Rh",3,0.0,Cubic,225,Fm-3m,0.0,True,True
mp-867821,TaTiMn2,"Mn, Ta, Ti",3,0.0,Cubic,225,Fm-3m,0.0,True,True
mp-866104,CaCdHg2,"Ca, Cd, Hg",3,0.0,Cubic,225,Fm-3m,0.0,True,True
mp-1186952,Sc2ZnHg,"Hg, Sc, Zn",3,0.015134207499999164,Cubic,225,Fm-3m,0.0,True,True
mp-973769,Hf6Al16Os7,"Al, Hf, Os",3,0.012853226637943749,Cubic,225,Fm-3m,0.0,False,True
mp-868003,LaInAu2,"Au, In, La",3,0.0,Cubic,225,Fm-3m,0.0,True,True
mp-30657,TiGaNi2,"Ga, Ni, Ti",3,0.0,Cubic,225,Fm-3m,0.0,False,True
mp-867233,Sc2ZnIr,"Ir, Sc, Zn",3,0.0,Cubic,225,Fm-3m,0.0,True,True
mp-864987,MnZnRh2,"Mn, Rh, Zn",3,0.007586837499999888,Cubic,225,Fm-3m,0.0,True,True
mp-862720,Sr2CdIn,"Cd, In, Sr",3,0.0,Cubic,225,Fm-3m,0.0,True,True
mp-973343,Li2MgHg,"Hg, Li, Mg",3,0.02231218499999965,Cubic,225,Fm-3m,0.0,True,True
mp-867250,LiZn2Pd,"Li, Pd, Zn",3,0.0,Cubic,225,Fm-3m,0.0,True,True
mp-4897,ScSnPd2,"Pd, Sc, Sn",3,0.0,Cubic,225,Fm-3m,0.0,False,True
mp-977187,La2MgTl,"La, Mg, Tl",3,0.012027028416669694,Cubic,225,Fm-3m,0.0,True,True
mp-861951,LiTaRh2,"Li, Rh, Ta",3,0.0,Cubic,225,Fm-3m,0.0,True,True
mp-865200,MnGa2Tc,"Ga, Mn, Tc",3,0.02822794458333533,Cubic,225,Fm-3m,0.0,True,True
mp-979422,YGaAu2,"Au, Ga, Y",3,0.03492146708333088,Cubic,225,Fm-3m,0.0,True,True
mp-1185100,La2AgHg,"Ag, Hg, La",3,0.0,Cubic,225,Fm-3m,0.0,True,True
mp-1186205,Nb2MoOs,"Mo, Nb, Os",3,0.0,Cubic,225,Fm-3m,0.0,True,True
mp-1183041,ZrZnCo2,"Co, Zn, Zr",3,0.0,Cubic,225,Fm-3m,0.0,True,True
mp-862887,LiSc2Os,"Li, Os, Sc",3,0.0,Cubic,225,Fm-3m,0.0,True,True
mp-1183151,AlZnCu2,"Al, Cu, Zn",3,0.015745643161428458,Cubic,225,Fm-3m,0.0,True,True
mp-1186206,Nb2MoRu,"Mo, Nb, Ru",3,0.0,Cubic,225,Fm-3m,0.0,True,True
mp-1184221,FeSnRh2,"Fe, Rh, Sn",3,0.04245220750000023,Cubic,225,Fm-3m,0.0,True,True
mp-862543,Sc2AlTc,"Al, Sc, Tc",3,0.0,Cubic,225,Fm-3m,0.0,True,True
mp-1187916,ZnInPd2,"In, Pd, Zn",3,0.020864187499999076,Cubic,225,Fm-3m,0.0,True,True
mp-980665,Zn2CuIr,"Cu, Ir, Zn",3,0.0,Cubic,225,Fm-3m,0.0,True,True
mp-865878,Ti2TcNi,"Ni, Tc, Ti",3,0.0,Cubic,225,Fm-3m,0.0,True,True
mp-867196,LiCd2Pd,"Cd, Li, Pd",3,0.0,Cubic,225,Fm-3m,0.0,True,True
mp-30551,GaFeCo2,"Co, Fe, Ga",3,0.0,Cubic,225,Fm-3m,0.0,False,True
mp-865659,Y2ZnIr,"Ir, Y, Zn",3,0.016318813958336342,Cubic,225,Fm-3m,0.0,True,True
mp-862369,Sc2IrRu,"Ir, Ru, Sc",3,0.0,Cubic,225,Fm-3m,0.0,True,True
mp-1185958,MgScPt2,"Mg, Pt, Sc",3,0.0,Cubic,225,Fm-3m,0.0,True,True
mp-867880,La2TlCd,"Cd, La, Tl",3,0.0,Cubic,225,Fm-3m,0.0,True,True
mp-1185826,MgAlAu2,"Al, Au, Mg",3,0.015376279999998133,Cubic,225,Fm-3m,0.0,True,True
mp-862316,LiBePt2,"Be, Li, Pt",3,0.0,Cubic,225,Fm-3m,0.0,True,True
mp-21469,VCo2Sn,"Co, Sn, V",3,0.0542419087499999,Cubic,225,Fm-3m,0.0,False,True
mp-865517,YZnRh2,"Rh, Y, Zn",3,0.02112669687500013,Cubic,225,Fm-3m,0.0,True,True
mp-1183466,Ca2PtAu,"Au, Ca, Pt",3,0.02013418250000143,Cubic,225,Fm-3m,0.0,True,True
mp-866105,Ca2HgPb,"Ca, Hg, Pb",3,0.0,Cubic,225,Fm-3m,0.0,True,True
mp-1187751,Y2PdRh,"Pd, Rh, Y",3,0.01755265875000056,Cubic,225,Fm-3m,0.0,True,True
mp-865448,TiGaRu2,"Ga, Ru, Ti",3,0.0,Cubic,225,Fm-3m,0.0,True,True
mp-867266,CaMgTl2,"Ca, Mg, Tl",3,0.0,Cubic,225,Fm-3m,0.0,True,True
mp-1186768,Ta2FeRu,"Fe, Ru, Ta",3,0.019575400384614028,Cubic,225,Fm-3m,0.0,True,True
mp-972861,Sc2TlTc,"Sc, Tc, Tl",3,0.034164898020832446,Cubic,225,Fm-3m,0.0,True,True
mp-867774,Ta2CrOs,"Cr, Os, Ta",3,0.0,Cubic,225,Fm-3m,0.0,True,True
mp-1184971,LaAg2Hg,"Ag, Hg, La",3,0.05919777973214124,Cubic,225,Fm-3m,0.0,True,True
mp-1185262,LiPd2Au,"Au, Li, Pd",3,0.025279509999997174,Cubic,225,Fm-3m,0.00019999999999997797,True,False
mp-5149,NbAlCo2,"Al, Co, Nb",3,0.0,Cubic,225,Fm-3m,0.0,False,True
mp-861940,Ca2CdSn,"Ca, Cd, Sn",3,0.0,Cubic,225,Fm-3m,0.0,True,True
mp-1187463,TiBe2Pt,"Be, Pt, Ti",3,0.015290991499997908,Cubic,225,Fm-3m,0.0,True,True
mp-864772,LiSc2Au,"Au, Li, Sc",3,0.06392891708333437,Cubic,225,Fm-3m,0.0,True,True
mp-866106,Ba2HgPb,"Ba, Hg, Pb",3,0.0,Cubic,225,Fm-3m,0.0,True,True
mp-862710,Sc2CdTc,"Cd, Sc, Tc",3,0.0463718153124999,Cubic,225,Fm-3m,0.0,True,True
mp-866159,YZrRu2,"Ru, Y, Zr",3,0.02422455156249903,Cubic,225,Fm-3m,0.0,True,True
mp-1186944,Sc2CoRh,"Co, Rh, Sc",3,0.02232924249999968,Cubic,225,Fm-3m,0.0,True,True
mp-865514,YSnAu2,"Au, Sn, Y",3,0.0,Cubic,225,Fm-3m,0.0,True,True
mp-974943,HfZrTc2,"Hf, Tc, Zr",3,0.0,Cubic,225,Fm-3m,0.0,True,True
mp-16501,HfAlPd2,"Al, Hf, Pd",3,0.0,Cubic,225,Fm-3m,0.0,False,True
mp-1183165,Al2CuPd,"Al, Cu, Pd",3,0.028162635124997948,Cubic,225,Fm-3m,0.0,True,True
mp-19877,ZrNi2Sn,"Ni, Sn, Zr",3,0.048818432421874114,Cubic,225,Fm-3m,0.0,False,True
mp-865444,LiSc2Pt,"Li, Pt, Sc",3,0.0,Cubic,225,Fm-3m,0.0,True,True
mp-862725,ScTc2W,"Sc, Tc, W",3,0.0,Cubic,225,Fm-3m,0.0,True,True
mp-864933,Mg2AgRh,"Ag, Mg, Rh",3,0.0,Cubic,225,Fm-3m,0.0,True,True
mp-3576,HfGaCo2,"Co, Ga, Hf",3,0.0,Cubic,225,Fm-3m,0.0,False,True
mp-867326,Al2RuRh,"Al, Rh, Ru",3,0.0,Cubic,225,Fm-3m,0.0,True,True
mp-1187698,VZnCo2,"Co, V, Zn",3,0.0,Cubic,225,Fm-3m,0.0,True,True
mp-861877,CdSnRh2,"Cd, Rh, Sn",3,0.0,Cubic,225,Fm-3m,0.0,True,True
mp-1185961,MgScZn2,"Mg, Sc, Zn",3,0.0,Cubic,225,Fm-3m,0.0,True,True
mp-1185314,LiCd2Cu,"Cd, Cu, Li",3,0.022255256249998467,Cubic,225,Fm-3m,0.0,True,True
mp-1187430,Ti2IrRu,"Ir, Ru, Ti",3,0.01631539999999987,Cubic,225,Fm-3m,0.0,True,True
mp-22503,ZrCo2Sn,"Co, Sn, Zr",3,0.0,Cubic,225,Fm-3m,0.0,False,True
mp-862764,LiCa2Rh,"Ca, Li, Rh",3,0.0064793370833324815,Cubic,225,Fm-3m,0.0,True,True
mp-864898,Na2TlBi,"Bi, Na, Tl",3,0.0,Cubic,225,Fm-3m,0.0,True,True
mp-867794,Sc2CuIr,"Cu, Ir, Sc",3,0.0,Cubic,225,Fm-3m,0.0,True,True
mp-861908,TaTiRu2,"Ru, Ta, Ti",3,0.0,Cubic,225,Fm-3m,0.0,True,True
mp-1183468,Ca2ZnSn,"Ca, Sn, Zn",3,0.01318905291666539,Cubic,225,Fm-3m,0.0,True,True
mp-3740,TiNi2Sn,"Ni, Sn, Ti",3,0.03585484116071225,Cubic,225,Fm-3m,0.0,False,True
mp-1183766,Cs2KRb,"Cs, K, Rb",3,0.028316606484912743,Cubic,225,Fm-3m,0.0,True,True
mp-10898,ScAlNi2,"Al, Ni, Sc",3,0.0,Cubic,225,Fm-3m,0.0,False,True
mp-22673,MnInCu2,"Cu, In, Mn",3,0.08145932516010035,Cubic,225,Fm-3m,0.0,False,True
mp-861641,Ti2CoRe,"Co, Re, Ti",3,0.0,Cubic,225,Fm-3m,0.0,True,True
mp-865184,LiScPd2,"Li, Pd, Sc",3,0.0,Cubic,225,Fm-3m,0.0,True,True
mp-642281,Sr21In8Pb7,"In, Pb, Sr",3,0.004865456319443684,Cubic,225,Fm-3m,0.0,False,True
mp-1183218,AlGaRu2,"Al, Ga, Ru",3,0.0047900643750011795,Cubic,225,Fm-3m,0.0,True,True
mp-972328,Ti2IrRh,"Ir, Rh, Ti",3,0.013949064999998484,Cubic,225,Fm-3m,0.0,True,True
mp-866077,MgSc2Cd,"Cd, Mg, Sc",3,0.0,Cubic,225,Fm-3m,0.0,True,True
mp-866224,Be2NiPt,"Be, Ni, Pt",3,0.0,Cubic,225,Fm-3m,0.0,True,True
mp-862378,Sc2TcAu,"Au, Sc, Tc",3,0.053100112812501266,Cubic,225,Fm-3m,0.0,True,True
mp-977566,MgScPd2,"Mg, Pd, Sc",3,0.0,Cubic,225,Fm-3m,0.0,True,True
mp-1183321,BaSr2Ca,"Ba, Ca, Sr",3,0.024299925,Cubic,225,Fm-3m,0.0,True,True
mp-971891,Zn2PdAu,"Au, Pd, Zn",3,0.007885327500000372,Cubic,225,Fm-3m,0.0,True,True
mp-16497,ScAlCu2,"Al, Cu, Sc",3,0.0,Cubic,225,Fm-3m,0.0,False,True
mp-1194230,Zr6Zn16Cu7,"Cu, Zn, Zr",3,0.0,Cubic,225,Fm-3m,0.0,False,True
mp-1185433,LiSc2Pd,"Li, Pd, Sc",3,0.04950477416666743,Cubic,225,Fm-3m,0.0,True,True
mp-20730,HfCo2Sn,"Co, Hf, Sn",3,0.0,Cubic,225,Fm-3m,0.0,False,True
mp-1194206,Sc6Al16Os7,"Al, Os, Sc",3,0.0,Cubic,225,Fm-3m,0.0,False,True
mp-1186956,Sc2PtRh,"Pt, Rh, Sc",3,0.014486602500002554,Cubic,225,Fm-3m,0.0,True,True
mp-1187762,Y2RuPt,"Pt, Ru, Y",3,0.0318465040625,Cubic,225,Fm-3m,0.0,True,True
mp-864946,MnCuPd2,"Cu, Mn, Pd",3,0.0,Cubic,225,Fm-3m,0.0,True,True
mp-862261,Sc2ZnRu,"Ru, Sc, Zn",3,0.0,Cubic,225,Fm-3m,0.0,True,True
mp-865098,NaLaAu2,"Au, La, Na",3,0.0,Cubic,225,Fm-3m,0.0,True,True
mp-1192947,Sc6Al16Ru7,"Al, Ru, Sc",3,0.004263442413795282,Cubic,225,Fm-3m,0.0,False,True
mp-976220,NaCdHg2,"Cd, Hg, Na",3,0.015048504999998435,Cubic,225,Fm-3m,0.0,True,True
mp-1187444,Ti2RuRh,"Rh, Ru, Ti",3,0.016410322500000518,Cubic,225,Fm-3m,0.0,True,True
mp-864640,Ta2NbIr,"Ir, Nb, Ta",3,0.0,Cubic,225,Fm-3m,0.0,True,True
mp-865867,Li2YTl,"Li, Tl, Y",3,0.0,Cubic,225,Fm-3m,0.0,True,True
mp-1186765,SrTl2Cd,"Cd, Sr, Tl",3,0.010923391840278462,Cubic,225,Fm-3m,0.30989999999999984,True,False
mp-642418,Sr11In3Ga4,"Ga, In, Sr",3,0.0,Cubic,225,Fm-3m,0.0,False,True
mp-865921,MgAlIr2,"Al, Ir, Mg",3,0.0,Cubic,225,Fm-3m,0.0,True,True
mp-3736,ZrAlCu2,"Al, Cu, Zr",3,0.0031096151376122094,Cubic,225,Fm-3m,0.0,False,True
mp-977544,Hf2ReNi,"Hf, Ni, Re",3,0.02522836086206759,Cubic,225,Fm-3m,0.0,True,True
mp-864798,HfZnIr2,"Hf, Ir, Zn",3,0.0,Cubic,225,Fm-3m,0.0,True,True
mp-1207422,Zr6Be15Cu8,"Be, Cu, Zr",3,0.0,Cubic,225,Fm-3m,0.0,True,True
mp-1187710,Y2MgCd,"Cd, Mg, Y",3,0.007403235000000841,Cubic,225,Fm-3m,0.0,True,True
mp-865710,LiSnAu2,"Au, Li, Sn",3,0.0,Cubic,225,Fm-3m,0.0,True,True
mp-867225,LaCdAg2,"Ag, Cd, La",3,0.007377379068629342,Cubic,225,Fm-3m,0.0,True,True
mp-865183,MgGaAg2,"Ag, Ga, Mg",3,0.0,Cubic,225,Fm-3m,0.0,True,True
mp-865641,Y2NiRu,"Ni, Ru, Y",3,0.01610984093750023,Cubic,225,Fm-3m,0.0,True,True
mp-1185620,MgVRu2,"Mg, Ru, V",3,0.0,Cubic,225,Fm-3m,0.0,True,True
mp-867507,TaGaFe2,"Fe, Ga, Ta",3,0.0,Cubic,225,Fm-3m,0.05970000000000031,True,False
mp-1183493,Ca2PdPt,"Ca, Pd, Pt",3,0.023825183333332944,Cubic,225,Fm-3m,0.0,True,True
mp-866073,MgSnRh2,"Mg, Rh, Sn",3,0.0,Cubic,225,Fm-3m,0.0,True,True
mp-866166,Y2PdRu,"Pd, Ru, Y",3,0.0,Cubic,225,Fm-3m,0.0,True,True
mp-1184991,Li2SnPb,"Li, Pb, Sn",3,0.0011723175000000197,Cubic,225,Fm-3m,0.0,True,True
mp-1187099,Sr2TlHg,"Hg, Sr, Tl",3,0.0,Cubic,225,Fm-3m,0.0,True,True
mp-1183416,BeCrFe2,"Be, Cr, Fe",3,0.0,Cubic,225,Fm-3m,0.0,True,True
mp-867779,Ta2CrFe,"Cr, Fe, Ta",3,0.012144368347222212,Cubic,225,Fm-3m,0.0,True,True
mp-866154,TiBeIr2,"Be, Ir, Ti",3,0.0,Cubic,225,Fm-3m,0.0,True,True
mp-1186135,NaLi2Sn,"Li, Na, Sn",3,0.0248655635387931,Cubic,225,Fm-3m,0.0,True,True
mp-1185010,Li2CaTl,"Ca, Li, Tl",3,0.005285529999998317,Cubic,225,Fm-3m,0.0,True,True
mp-1192680,Ti6Al16Os7,"Al, Os, Ti",3,0.07253532340517665,Cubic,225,Fm-3m,0.0,False,True
mp-865795,LiSc2Ru,"Li, Ru, Sc",3,0.0,Cubic,225,Fm-3m,0.0,True,True
mp-865486,VZnRu2,"Ru, V, Zn",3,0.0,Cubic,225,Fm-3m,0.0,True,True
mp-1185322,LiCuAu2,"Au, Cu, Li",3,0.01445926124999719,Cubic,225,Fm-3m,0.0,True,True
mp-1208343,Ta6Be15Ni8,"Be, Ni, Ta",3,0.0,Cubic,225,Fm-3m,0.0,True,True
mp-1186951,Sc2PdRh,"Pd, Rh, Sc",3,0.016421494999998565,Cubic,225,Fm-3m,0.0,True,True
mp-1183442,BiPd2Au,"Au, Bi, Pd",3,0.008154784861113207,Cubic,225,Fm-3m,0.0,True,True
mp-864896,Zr2CoTc,"Co, Tc, Zr",3,0.0,Cubic,225,Fm-3m,0.0,True,True
mp-865495,V2CrTc,"Cr, Tc, V",3,0.004401685000001265,Cubic,225,Fm-3m,0.0,True,True
mp-1185434,LiSnPt2,"Li, Pt, Sn",3,0.0013596499999994904,Cubic,225,Fm-3m,0.0,True,True
mp-1187095,Sr2PdAu,"Au, Pd, Sr",3,0.041464634624998276,Cubic,225,Fm-3m,0.0,True,True
mp-972957,ScTiRu2,"Ru, Sc, Ti",3,0.0,Cubic,225,Fm-3m,0.0,True,True
mp-975368,LiCa2Mg,"Ca, Li, Mg",3,0.011525041562499228,Cubic,225,Fm-3m,0.0,True,True
mp-30763,LiPd2Pb,"Li, Pb, Pd",3,0.0,Cubic,225,Fm-3m,0.0,False,True
mp-975176,Rb2HgAu,"Au, Hg, Rb",3,0.03029406527343781,Cubic,225,Fm-3m,0.0,True,True
mp-977545,ZrTc2W,"Tc, W, Zr",3,0.0,Cubic,225,Fm-3m,0.0,True,True
mp-1185007,LaAlAg2,"Ag, Al, La",3,0.07053969985119135,Cubic,225,Fm-3m,0.0,True,True
mp-863759,CsK2Bi,"Bi, Cs, K",3,0.0,Cubic,225,Fm-3m,0.30099999999999993,True,False
mp-979260,Sc6Ga16Ru7,"Ga, Ru, Sc",3,0.0,Cubic,225,Fm-3m,0.0,False,True
mp-1184588,Hf2MoPt,"Hf, Mo, Pt",3,0.0,Cubic,225,Fm-3m,0.0,True,True
mp-977367,CdInRh2,"Cd, In, Rh",3,0.0,Cubic,225,Fm-3m,0.0,True,True
mp-862423,Sc2TcPd,"Pd, Sc, Tc",3,0.040141765937501184,Cubic,225,Fm-3m,0.0,True,True
mp-1183556,CaYCd2,"Ca, Cd, Y",3,0.0009386125000006018,Cubic,225,Fm-3m,0.0,True,True
mp-1183608,Ca2ZnIn,"Ca, In, Zn",3,0.017576287687499637,Cubic,225,Fm-3m,0.0,True,True
mp-865714,Li2HgAu,"Au, Hg, Li",3,0.0,Cubic,225,Fm-3m,0.0,True,True
mp-973067,ScGa2Ru,"Ga, Ru, Sc",3,0.004263329264704296,Cubic,225,Fm-3m,0.0,True,True
mp-1187085,Sr2LiGa,"Ga, Li, Sr",3,0.0349322889285717,Cubic,225,Fm-3m,0.0,True,True
mp-1194458,Ti6Ga16Ni7,"Ga, Ni, Ti",3,0.0377705249827569,Cubic,225,Fm-3m,0.0,False,True
mp-1186188,NaTlHg2,"Hg, Na, Tl",3,0.01343606750000248,Cubic,225,Fm-3m,0.0,True,True
mp-865125,MgGaRh2,"Ga, Mg, Rh",3,0.0,Cubic,225,Fm-3m,0.0,True,True
mp-865043,MgInPd2,"In, Mg, Pd",3,0.0,Cubic,225,Fm-3m,0.0,True,True
mp-1184592,Hf2RePd,"Hf, Pd, Re",3,0.0,Cubic,225,Fm-3m,0.0,True,True
mp-864985,MnZnIr2,"Ir, Mn, Zn",3,0.0,Cubic,225,Fm-3m,0.0,True,True
mp-1185034,Li2CdIn,"Cd, In, Li",3,0.04210788249999986,Cubic,225,Fm-3m,0.0,True,True
mp-1183155,Al2NiOs,"Al, Ni, Os",3,0.0,Cubic,225,Fm-3m,0.0,True,True
mp-867252,LiZn2Ni,"Li, Ni, Zn",3,0.0,Cubic,225,Fm-3m,0.0,True,True
mp-862719,LiY2Os,"Li, Os, Y",3,0.0,Cubic,225,Fm-3m,0.0,True,True
mp-1186978,ScCdPt2,"Cd, Pt, Sc",3,0.018976793749999388,Cubic,225,Fm-3m,0.0,True,True
mp-862740,Sr2TlCd,"Cd, Sr, Tl",3,0.0,Cubic,225,Fm-3m,0.0,True,True
mp-1184581,HfMnIr2,"Hf, Ir, Mn",3,0.022822161767241056,Cubic,225,Fm-3m,0.0,True,True
mp-1186955,Sc2NiPd,"Ni, Pd, Sc",3,0.019168527499999755,Cubic,225,Fm-3m,0.0,True,True
mp-984724,Ba2TlZn,"Ba, Tl, Zn",3,0.0,Cubic,225,Fm-3m,0.0,True,True
mp-865998,HfGaIr2,"Ga, Hf, Ir",3,0.012137372000001534,Cubic,225,Fm-3m,0.0,True,True
mp-1188066,ZrInCo2,"Co, In, Zr",3,0.00877034779762198,Cubic,225,Fm-3m,0.0,True,True
mp-865163,HfBeRh2,"Be, Hf, Rh",3,0.0,Cubic,225,Fm-3m,0.0,True,True
mp-865936,LiSc2Tc,"Li, Sc, Tc",3,0.0,Cubic,225,Fm-3m,0.0,True,True
mp-1186171,NaSrTl2,"Na, Sr, Tl",3,0.016682664218752308,Cubic,225,Fm-3m,0.0,True,True
mp-861905,LiBiPd2,"Bi, Li, Pd",3,0.0,Cubic,225,Fm-3m,0.0,True,True
mp-864903,MgTaRu2,"Mg, Ru, Ta",3,0.0,Cubic,225,Fm-3m,0.0,True,True
mp-864953,MnV2Cr,"Cr, Mn, V",3,0.0,Cubic,225,Fm-3m,0.0,True,True
mp-863659,LiScHg2,"Hg, Li, Sc",3,0.0,Cubic,225,Fm-3m,0.0,True,True
mp-865051,NaCa2Tl,"Ca, Na, Tl",3,0.0,Cubic,225,Fm-3m,0.0,True,True
mp-864597,LiMgTl2,"Li, Mg, Tl",3,0.0,Cubic,225,Fm-3m,0.0,True,True
mp-1183338,BaNa2Sn,"Ba, Na, Sn",3,0.06974940056034562,Cubic,225,Fm-3m,0.0,True,True
mp-30465,YBiPd2,"Bi, Pd, Y",3,0.07066287958333461,Cubic,225,Fm-3m,0.0,False,True
mp-867206,LiCd2Pt,"Cd, Li, Pt",3,0.0,Cubic,225,Fm-3m,0.0,True,True
mp-1185307,LiAl2Cu,"Al, Cu, Li",3,0.008947646500000683,Cubic,225,Fm-3m,0.0,True,True
mp-1187703,Y2IrRu,"Ir, Ru, Y",3,0.03366023984374955,Cubic,225,Fm-3m,0.0,True,True
mp-1185984,MnBeRu2,"Be, Mn, Ru",3,0.012340230883621572,Cubic,225,Fm-3m,0.0,True,True
mp-1186992,ScZnAu2,"Au, Sc, Zn",3,0.01596059968749941,Cubic,225,Fm-3m,0.0,True,True
mp-1188031,ZrScCo2,"Co, Sc, Zr",3,0.0,Cubic,225,Fm-3m,0.0,True,True
mp-31187,TiAlFe2,"Al, Fe, Ti",3,0.0,Cubic,225,Fm-3m,0.0,False,True
mp-865912,LiZn2Rh,"Li, Rh, Zn",3,0.0,Cubic,225,Fm-3m,0.0,True,True
mp-867806,LiLa2Ir,"Ir, La, Li",3,0.08924704208333356,Cubic,225,Fm-3m,0.0,True,True
mp-865560,Y2AlZn,"Al, Y, Zn",3,0.004866133749999335,Cubic,225,Fm-3m,0.0,True,True
mp-1193995,Ti6Ga16Ir7,"Ga, Ir, Ti",3,0.023319744004700382,Cubic,225,Fm-3m,0.0,False,True
mp-865228,LiScPt2,"Li, Pt, Sc",3,0.0,Cubic,225,Fm-3m,0.0,True,True
mp-1186123,NaCd2Ag,"Ag, Cd, Na",3,0.024412766121031826,Cubic,225,Fm-3m,0.0,True,True
mp-977475,ZrInPd2,"In, Pd, Zr",3,0.0,Cubic,225,Fm-3m,0.0,True,True
mp-1185092,LaZn2Ag,"Ag, La, Zn",3,0.044811889999996524,Cubic,225,Fm-3m,0.0,True,True
mp-862846,CaLaHg2,"Ca, Hg, La",3,0.0,Cubic,225,Fm-3m,0.0,True,True
mp-864906,MgSnIr2,"Ir, Mg, Sn",3,0.0,Cubic,225,Fm-3m,0.0,True,True
mp-1183147,Al2FeRh,"Al, Fe, Rh",3,0.01138995999999981,Cubic,225,Fm-3m,0.0,True,True
mp-1194450,Ti6Al16Rh7,"Al, Rh, Ti",3,0.022590278620691073,Cubic,225,Fm-3m,0.0,False,True
mp-867768,ScZnPt2,"Pt, Sc, Zn",3,0.0,Cubic,225,Fm-3m,0.0,True,True
mp-31170,Cd2AgAu,"Ag, Au, Cd",3,0.0,Cubic,225,Fm-3m,0.0,False,True
mp-981311,SrTlHg2,"Hg, Sr, Tl",3,0.0,Cubic,225,Fm-3m,0.0,True,True
mp-972241,Ti2ReTc,"Re, Tc, Ti",3,0.0,Cubic,225,Fm-3m,0.0,True,True
mp-1183458,Ca2CdHg,"Ca, Cd, Hg",3,0.0033213500000002227,Cubic,225,Fm-3m,0.0,True,True
mp-1183688,CrGaRu2,"Cr, Ga, Ru",3,0.0,Cubic,225,Fm-3m,0.0,True,True
mp-1186107,NaBiPd2,"Bi, Na, Pd",3,0.024249334166663417,Cubic,225,Fm-3m,0.0,True,True
mp-982666,LiAl2Tc,"Al, Li, Tc",3,0.024522562857145047,Cubic,225,Fm-3m,0.0,True,True
mp-30570,CrGaFe2,"Cr, Fe, Ga",3,0.08692020476562501,Cubic,225,Fm-3m,0.0,False,True
mp-862629,ScRh2Pb,"Pb, Rh, Sc",3,0.0,Cubic,225,Fm-3m,0.0,True,True
mp-865893,LiZr2Tc,"Li, Tc, Zr",3,0.0,Cubic,225,Fm-3m,0.0,True,True
mp-983598,Ca2AgBi,"Ag, Bi, Ca",3,0.02751013020833515,Cubic,225,Fm-3m,0.0,True,True
mp-1185622,MgZrZn2,"Mg, Zn, Zr",3,0.028046670000000162,Cubic,225,Fm-3m,0.0,True,True
mp-1186938,Sc2CdAu,"Au, Cd, Sc",3,0.01925251750000001,Cubic,225,Fm-3m,0.0,True,True
mp-971739,ZnCuPt2,"Cu, Pt, Zn",3,0.002394867499998732,Cubic,225,Fm-3m,0.0,True,True
mp-971754,V2ReW,"Re, V, W",3,0.0,Cubic,225,Fm-3m,0.0,True,True
mp-865050,HfMgRh2,"Hf, Mg, Rh",3,0.0,Cubic,225,Fm-3m,0.0,True,True
mp-1187922,ZnInRh2,"In, Rh, Zn",3,0.0,Cubic,225,Fm-3m,0.0,True,True
mp-20567,LiGa2Ru,"Ga, Li, Ru",3,0.00573874958332965,Cubic,225,Fm-3m,0.0,False,True
mp-1187431,Ti2CuIr,"Cu, Ir, Ti",3,0.00936668703125143,Cubic,225,Fm-3m,0.0,True,True
mp-1185621,MgZn2Ir,"Ir, Mg, Zn",3,0.0,Cubic,225,Fm-3m,0.0,True,True
mp-1184594,Hf2TcPd,"Hf, Pd, Tc",3,0.0,Cubic,225,Fm-3m,0.0,True,True
mp-1187940,Zr2CuRe,"Cu, Re, Zr",3,0.024603215026925085,Cubic,225,Fm-3m,0.0,True,True
mp-867914,LaMgAg2,"Ag, La, Mg",3,0.0006446235714294701,Cubic,225,Fm-3m,0.0,True,True
mp-862546,Sc2AlRu,"Al, Ru, Sc",3,0.018248340357143178,Cubic,225,Fm-3m,0.0,True,True
mp-1185995,MnPd2Au,"Au, Mn, Pd",3,0.0,Cubic,225,Fm-3m,0.0,True,True