material_id,formula,elements,num_elements,energy_above_hull,crystal_system,spacegroup_number,spacegroup_symbol,band_gap,theoretical,is_metal,electronegativity_difference,atomic_concentrations
mp-1221672,MnAl12Fe,"Al, Fe, Mn",3,0.0,Orthorhombic,38,Amm2,0.0,True,True,0.059863790970734174,Mn: 0.0714; Al: 0.8571; Fe: 0.0714
mp-1215296,ZrMnCr,"Cr, Mn, Zr",3,0.005478516666672206,Orthorhombic,38,Amm2,0.0,True,True,0.13719410418171113,Zr: 0.3333; Mn: 0.3333; Cr: 0.3333
mp-1028041,YMg14Ti,"Mg, Ti, Y",3,0.08810301197916637,Orthorhombic,38,Amm2,0.0,True,True,0.06112231589198826,Y: 0.0625; Mg: 0.8750; Ti: 0.0625
mp-1215327,ZrAlIr,"Al, Ir, Zr",3,0.028855167508687884,Orthorhombic,38,Amm2,0.0,True,True,0.3626139667592644,Zr: 0.3333; Al: 0.3333; Ir: 0.3333
mp-1022599,NaMg6Zn,"Mg, Na, Zn",3,0.09928105040258628,Orthorhombic,38,Amm2,0.0,True,True,0.18020821290940098,Na: 0.1250; Mg: 0.7500; Zn: 0.1250
mp-1027902,LaMg14Cu,"Cu, La, Mg",3,0.0948854842187501,Orthorhombic,38,Amm2,0.0,True,True,0.15475282711472507,La: 0.0625; Mg: 0.8750; Cu: 0.0625
mp-1022607,Mg6ZnCd,"Cd, Mg, Zn",3,0.05407525807500013,Orthorhombic,38,Amm2,0.0,True,True,0.15620499351813305,Mg: 0.7500; Zn: 0.1250; Cd: 0.1250
mp-1021380,Mg6CdSn,"Cd, Mg, Sn",3,0.0623777131249994,Orthorhombic,38,Amm2,0.0,True,True,0.23299342801890352,Mg: 0.7500; Cd: 0.1250; Sn: 0.1250
mp-1022601,LiMg6Zn,"Li, Mg, Zn",3,0.05882515500000007,Orthorhombic,38,Amm2,0.0,True,True,0.1675139919529112,Li: 0.1250; Mg: 0.7500; Zn: 0.1250
mp-974790,Rb5Tl11Cd2,"Cd, Rb, Tl",3,0.0,Orthorhombic,38,Amm2,0.0,False,True,0.3637798818916954,Rb: 0.2778; Tl: 0.6111; Cd: 0.1111
mp-1216079,YAlCo,"Al, Co, Y",3,0.06806179749999952,Orthorhombic,38,Amm2,0.0,True,True,0.27092434368288126,Y: 0.3333; Al: 0.3333; Co: 0.3333
mp-1023267,CaMg6Zn,"Ca, Mg, Zn",3,0.09404356249999957,Orthorhombic,38,Amm2,0.0,True,True,0.16262975588741438,Ca: 0.1250; Mg: 0.7500; Zn: 0.1250
mp-1017302,NaMg6Ga,"Ga, Mg, Na",3,0.08988332357758644,Orthorhombic,38,Amm2,0.0,True,True,0.2215287791687572,Na: 0.1250; Mg: 0.7500; Ga: 0.1250
mp-1224495,HfMnAl,"Al, Hf, Mn",3,0.0,Orthorhombic,38,Amm2,0.0,True,True,0.13424687043734845,Hf: 0.3333; Mn: 0.3333; Al: 0.3333
mp-1028135,CaMg14Bi,"Bi, Ca, Mg",3,0.0911336981473212,Orthorhombic,38,Amm2,0.0,True,True,0.19206118816668816,Ca: 0.0625; Mg: 0.8750; Bi: 0.0625
mp-1219369,ScAlNi,"Al, Ni, Sc",3,0.014483089166668073,Orthorhombic,38,Amm2,0.0,True,True,0.2248456260538673,Sc: 0.3333; Al: 0.3333; Ni: 0.3333
mp-1026876,Mg14CdCu,"Cd, Cu, Mg",3,0.06073786109375012,Orthorhombic,38,Amm2,0.0,True,True,0.1646385719538407,Mg: 0.8750; Cd: 0.0625; Cu: 0.0625
mp-1028399,Mg14CdCo,"Cd, Co, Mg",3,0.09747331062500009,Orthorhombic,38,Amm2,0.0,True,True,0.16064202244431555,Mg: 0.8750; Cd: 0.0625; Co: 0.0625
mp-1217201,Ti4Mn5V3,"Mn, Ti, V",3,0.0,Orthorhombic,38,Amm2,0.0,True,True,0.03681787005729081,Ti: 0.3333; Mn: 0.4167; V: 0.2500
mp-1220599,NbVNi,"Nb, Ni, V",3,0.0,Orthorhombic,38,Amm2,0.0,True,True,0.1396026106091461,Nb: 0.3333; V: 0.3333; Ni: 0.3333
mp-1026745,LaMg14Cd,"Cd, La, Mg",3,0.0754642346875003,Orthorhombic,38,Amm2,0.0,True,True,0.10802018040625555,La: 0.0625; Mg: 0.8750; Cd: 0.0625
mp-1220408,NbAlZn,"Al, Nb, Zn",3,0.0,Orthorhombic,38,Amm2,0.0,True,True,0.021602468994692783,Nb: 0.3333; Al: 0.3333; Zn: 0.3333
mp-1027905,Mg14ZnBi,"Bi, Mg, Zn",3,0.06444561106874991,Orthorhombic,38,Amm2,0.0,True,True,0.1855387004778248,Mg: 0.8750; Zn: 0.0625; Bi: 0.0625
mp-1215203,ZrVCu,"Cu, V, Zr",3,0.06254995698717991,Orthorhombic,38,Amm2,0.0,True,True,0.23280893453645624,Zr: 0.3333; V: 0.3333; Cu: 0.3333
mp-1028086,YMg14Zr,"Mg, Y, Zr",3,0.06392073093749984,Orthorhombic,38,Amm2,0.0,True,True,0.02262983373778961,Y: 0.0625; Mg: 0.8750; Zr: 0.0625
mp-1021398,LiMg6Sn,"Li, Mg, Sn",3,0.06605676656249981,Orthorhombic,38,Amm2,0.0,True,True,0.2546075411294803,Li: 0.1250; Mg: 0.7500; Sn: 0.1250
mp-1224494,HfAlRh,"Al, Hf, Rh",3,0.06394447904902378,Orthorhombic,38,Amm2,0.0,True,True,0.40898247721224756,Hf: 0.3333; Al: 0.3333; Rh: 0.3333
mp-1216033,YAlFe,"Al, Fe, Y",3,0.01418000237179573,Orthorhombic,38,Amm2,0.0,True,True,0.25223445883190154,Y: 0.3333; Al: 0.3333; Fe: 0.3333
mp-1021282,NaLiMg6,"Li, Mg, Na",3,0.07574275022270083,Orthorhombic,38,Amm2,0.0,True,True,0.15422690264671726,Na: 0.1250; Li: 0.1250; Mg: 0.7500
mp-1220594,NbCrNi,"Cr, Nb, Ni",3,0.05024690538888699,Orthorhombic,38,Amm2,0.0,True,True,0.1342468704373484,Nb: 0.3333; Cr: 0.3333; Ni: 0.3333
mp-1027932,Mg14ZrTi,"Mg, Ti, Zr",3,0.08209628104166677,Orthorhombic,38,Amm2,0.0,True,True,0.05556176180611985,Mg: 0.8750; Zr: 0.0625; Ti: 0.0625
mp-1219323,ScMnCr,"Cr, Mn, Sc",3,0.04793286750000014,Orthorhombic,38,Amm2,0.0,True,True,0.12391753530294063,Sc: 0.3333; Mn: 0.3333; Cr: 0.3333
mp-1215279,ZrVNi,"Ni, V, Zr",3,0.0653792591666651,Orthorhombic,38,Amm2,0.0,True,True,0.2368309289110881,Zr: 0.3333; V: 0.3333; Ni: 0.3333
mp-1028257,SrMg14Al,"Al, Mg, Sr",3,0.09093201499999992,Orthorhombic,38,Amm2,0.0,True,True,0.11709371246997,Sr: 0.0625; Mg: 0.8750; Al: 0.0625
mp-1027829,Mg14CuSn,"Cu, Mg, Sn",3,0.06395562640624997,Orthorhombic,38,Amm2,0.0,True,True,0.20531987239427163,Mg: 0.8750; Cu: 0.0625; Sn: 0.0625
mp-1028216,Mg14ZrAl,"Al, Mg, Zr",3,0.0872686561979168,Orthorhombic,38,Amm2,0.0,True,True,0.0724568837309472,Mg: 0.8750; Zr: 0.0625; Al: 0.0625
mp-1224498,Hf5Zr5Ga6,"Ga, Hf, Zr",3,0.0,Orthorhombic,38,Amm2,0.0,True,True,0.2399340729763074,Hf: 0.3125; Zr: 0.3125; Ga: 0.3750
mp-1222060,MgAlAg,"Ag, Al, Mg",3,0.02462849083333385,Orthorhombic,38,Amm2,0.0,True,True,0.2531578339473003,Mg: 0.3333; Al: 0.3333; Ag: 0.3333
mp-1217776,Ti2NbNi9,"Nb, Ni, Ti",3,0.039257751874997915,Orthorhombic,38,Amm2,0.0,True,True,0.15221284439888763,Ti: 0.1667; Nb: 0.0833; Ni: 0.7500
mp-1022632,YMg6Cd,"Cd, Mg, Y",3,0.07189618750000015,Orthorhombic,38,Amm2,0.0,True,True,0.13322326185768008,Y: 0.1250; Mg: 0.7500; Cd: 0.1250
mp-1022076,Mg6CdCu,"Cd, Cu, Mg",3,0.08387427718749985,Orthorhombic,38,Amm2,0.0,True,True,0.21647387255740583,Mg: 0.7500; Cd: 0.1250; Cu: 0.1250
mp-1220472,NbGaCu,"Cu, Ga, Nb",3,0.03670296166666809,Orthorhombic,38,Amm2,0.0,True,True,0.12569805089976527,Nb: 0.3333; Ga: 0.3333; Cu: 0.3333
mp-1021276,LiMg6Cd,"Cd, Li, Mg",3,0.040547068750000026,Orthorhombic,38,Amm2,0.0,True,True,0.17782979924635803,Li: 0.1250; Mg: 0.7500; Cd: 0.1250
mp-1027863,Mg14ZrGa,"Ga, Mg, Zr",3,0.08915205937500037,Orthorhombic,38,Amm2,0.0,True,True,0.1208045942834957,Mg: 0.8750; Zr: 0.0625; Ga: 0.0625
mp-1027868,HfMg14Zr,"Hf, Mg, Zr",3,0.07730157750000055,Orthorhombic,38,Amm2,0.0,True,True,0.005555121510822248,Hf: 0.0625; Mg: 0.8750; Zr: 0.0625
mp-1023306,Mg6AlCd,"Al, Cd, Mg",3,0.04951974401041692,Orthorhombic,38,Amm2,0.0,True,True,0.14857657958103623,Mg: 0.7500; Al: 0.1250; Cd: 0.1250
mp-1028047,Mg14ZnNi,"Mg, Ni, Zn",3,0.07991292518333348,Orthorhombic,38,Amm2,0.0,True,True,0.1620908310176735,Mg: 0.8750; Zn: 0.0625; Ni: 0.0625
mp-1215323,ZrCrFe,"Cr, Fe, Zr",3,0.031020270000006178,Orthorhombic,38,Amm2,0.0,True,True,0.20757863302587018,Zr: 0.3333; Cr: 0.3333; Fe: 0.3333
mp-1224502,HfAlCo,"Al, Co, Hf",3,0.05346094910447441,Orthorhombic,38,Amm2,0.0,True,True,0.2369716344956829,Hf: 0.3333; Al: 0.3333; Co: 0.3333
mp-1022611,Mg6ZnSn,"Mg, Sn, Zn",3,0.07580717307499985,Orthorhombic,38,Amm2,0.0,True,True,0.22792199871885993,Mg: 0.7500; Zn: 0.1250; Sn: 0.1250
mp-1215340,ZrAlFe,"Al, Fe, Zr",3,0.028904783055556216,Orthorhombic,38,Amm2,0.0,True,True,0.2046134567096374,Zr: 0.3333; Al: 0.3333; Fe: 0.3333
mp-1028130,YMg14Cu,"Cu, Mg, Y",3,0.07772585737500037,Orthorhombic,38,Amm2,0.0,True,True,0.14589700990767424,Y: 0.0625; Mg: 0.8750; Cu: 0.0625
mp-1027993,Mg14ZrZn,"Mg, Zn, Zr",3,0.07327253250000032,Orthorhombic,38,Amm2,0.0,True,True,0.08212033852828418,Mg: 0.8750; Zr: 0.0625; Zn: 0.0625
mp-1224385,HfAlPd,"Al, Hf, Pd",3,0.05198919935185131,Orthorhombic,38,Amm2,0.0,True,True,0.3733035702421765,Hf: 0.3333; Al: 0.3333; Pd: 0.3333
mp-1028385,LaMg14Al,"Al, La, Mg",3,0.0831599617187504,Orthorhombic,38,Amm2,0.0,True,True,0.09137619698258403,La: 0.0625; Mg: 0.8750; Al: 0.0625
mp-1026439,Mg14CdGa,"Cd, Ga, Mg",3,0.03232649062500004,Orthorhombic,38,Amm2,0.0,True,True,0.1470544116985274,Mg: 0.8750; Cd: 0.0625; Ga: 0.0625
mp-1027977,LaMg14Zn,"La, Mg, Zn",3,0.08524071000000011,Orthorhombic,38,Amm2,0.0,True,True,0.09957526989669671,La: 0.0625; Mg: 0.8750; Zn: 0.0625
mp-1227563,Ca16Mg3Sn13,"Ca, Mg, Sn",3,0.02168068866477224,Orthorhombic,38,Amm2,0.0,True,True,0.4558464610960032,Ca: 0.5000; Mg: 0.0938; Sn: 0.4062
mp-1027921,Mg14ZrSn,"Mg, Sn, Zr",3,0.0651379911250003,Orthorhombic,38,Amm2,0.0,True,True,0.15709148409446005,Mg: 0.8750; Zr: 0.0625; Sn: 0.0625
mp-1215240,ZrTiPd,"Pd, Ti, Zr",3,0.04480754249999919,Orthorhombic,38,Amm2,0.0,True,True,0.3706750598570128,Zr: 0.3333; Ti: 0.3333; Pd: 0.3333
mp-1223275,La2FeSn4,"Fe, La, Sn",3,0.053999972714282585,Orthorhombic,38,Amm2,0.0,True,True,0.37931732448315775,La: 0.2857; Fe: 0.1429; Sn: 0.5714
mp-1027892,Mg14CoSn,"Co, Mg, Sn",3,0.09912283906249986,Orthorhombic,38,Amm2,0.0,True,True,0.2022336210920429,Mg: 0.8750; Co: 0.0625; Sn: 0.0625
mp-1215339,ZrFeMo,"Fe, Mo, Zr",3,0.07500154000000414,Orthorhombic,38,Amm2,0.0,True,True,0.34120700787384517,Zr: 0.3333; Fe: 0.3333; Mo: 0.3333
mp-1023395,Mg6AlSn,"Al, Mg, Sn",3,0.07594917651041655,Orthorhombic,38,Amm2,0.0,True,True,0.2235194342780958,Mg: 0.7500; Al: 0.1250; Sn: 0.1250
mp-1223248,La2Sn4Ru,"La, Ru, Sn",3,0.027771071071430953,Orthorhombic,38,Amm2,0.0,True,True,0.4181397091003563,La: 0.2857; Sn: 0.5714; Ru: 0.1429
mp-1217214,TiAlCu,"Al, Cu, Ti",3,0.04367723583333216,Orthorhombic,38,Amm2,0.0,True,True,0.15584892970081274,Ti: 0.3333; Al: 0.3333; Cu: 0.3333
mp-1022589,Mg6ZnCd,"Cd, Mg, Zn",3,0.05321462432500024,Orthorhombic,38,Amm2,0.0,True,True,0.15620499351813305,Mg: 0.7500; Zn: 0.1250; Cd: 0.1250
mp-1026388,Mg14TiCd,"Cd, Mg, Ti",3,0.06980478322916661,Orthorhombic,38,Amm2,0.0,True,True,0.10429637757372015,Mg: 0.8750; Ti: 0.0625; Cd: 0.0625
mp-1215350,ZrFeRe,"Fe, Re, Zr",3,0.04859087666666895,Orthorhombic,38,Amm2,0.0,True,True,0.2538153309440196,Zr: 0.3333; Fe: 0.3333; Re: 0.3333
mp-1023253,LiCaMg6,"Ca, Li, Mg",3,0.09205522312499959,Orthorhombic,38,Amm2,0.0,True,True,0.1386542462386205,Li: 0.1250; Ca: 0.1250; Mg: 0.7500
mp-1022612,Mg6ZnSn,"Mg, Sn, Zn",3,0.07669937869999988,Orthorhombic,38,Amm2,0.0,True,True,0.22792199871885993,Mg: 0.7500; Zn: 0.1250; Sn: 0.1250
mp-1021159,BaLaMg6,"Ba, La, Mg",3,0.08570198400568163,Orthorhombic,38,Amm2,0.0,True,True,0.14615381452428808,Ba: 0.1250; La: 0.1250; Mg: 0.7500
mp-1215307,ZrAlMo,"Al, Mo, Zr",3,0.012998103137253025,Orthorhombic,38,Amm2,0.0,True,True,0.3447704550373577,Zr: 0.3333; Al: 0.3333; Mo: 0.3333
mp-1022812,LiYMg6,"Li, Mg, Y",3,0.08722916624999932,Orthorhombic,38,Amm2,0.0,True,True,0.10894379284750465,Li: 0.1250; Y: 0.1250; Mg: 0.7500
mp-1023320,LiMg6Al,"Al, Li, Mg",3,0.05914789812499999,Orthorhombic,38,Amm2,0.0,True,True,0.1576338716773778,Li: 0.1250; Mg: 0.7500; Al: 0.1250
mp-1215322,ZrCoRe,"Co, Re, Zr",3,0.028989079166665377,Orthorhombic,38,Amm2,0.0,True,True,0.26411277052720394,Zr: 0.3333; Co: 0.3333; Re: 0.3333
mp-1028268,LiMg14Sn,"Li, Mg, Sn",3,0.03792041859375006,Orthorhombic,38,Amm2,0.0,True,True,0.18114220932736796,Li: 0.0625; Mg: 0.8750; Sn: 0.0625
mp-1027965,YMg14Ga,"Ga, Mg, Y",3,0.08062607052083326,Orthorhombic,38,Amm2,0.0,True,True,0.12439698298190355,Y: 0.0625; Mg: 0.8750; Ga: 0.0625
mp-1022467,Mg6ZrCd,"Cd, Mg, Zr",3,0.07675978093750002,Orthorhombic,38,Amm2,0.0,True,True,0.12489995996796793,Mg: 0.7500; Zr: 0.1250; Cd: 0.1250
mp-1023239,SrCaMg6,"Ca, Mg, Sr",3,0.060083106874999626,Orthorhombic,38,Amm2,0.0,True,True,0.14559683203971166,Sr: 0.1250; Ca: 0.1250; Mg: 0.7500
mp-1216045,ZrMnGa,"Ga, Mn, Zr",3,0.06024331568965646,Orthorhombic,38,Amm2,0.0,True,True,0.19618585292749546,Zr: 0.3333; Mn: 0.3333; Ga: 0.3333
mp-1027971,LiMg14Zn,"Li, Mg, Zn",3,0.046851297500000166,Orthorhombic,38,Amm2,0.0,True,True,0.11845192854065313,Li: 0.0625; Mg: 0.8750; Zn: 0.0625
mp-1218015,TaCoNi2,"Co, Ni, Ta",3,0.0,Orthorhombic,38,Amm2,0.0,True,True,0.17363755354185334,Ta: 0.2500; Co: 0.2500; Ni: 0.5000
mp-1228156,Ba2(AlAg)5,"Ag, Al, Ba",3,0.0,Orthorhombic,38,Amm2,0.0,True,True,0.45431266766402184,Ba: 0.5000; Al: 0.2500; Ag: 0.2500
mp-1027758,LiMg14Co,"Co, Li, Mg",3,0.09418894677083323,Orthorhombic,38,Amm2,0.0,True,True,0.16397408331806582,Li: 0.0625; Mg: 0.8750; Co: 0.0625
mp-1224481,HfAlCu,"Al, Cu, Hf",3,0.030488599090910284,Orthorhombic,38,Amm2,0.0,True,True,0.24499433100017273,Hf: 0.3333; Al: 0.3333; Cu: 0.3333
mp-1026428,HfMg14Cd,"Cd, Hf, Mg",3,0.0675354040624998,Orthorhombic,38,Amm2,0.0,True,True,0.09217637644754753,Hf: 0.0625; Mg: 0.8750; Cd: 0.0625
mp-1217088,TiAlCr,"Al, Cr, Ti",3,0.09133075916666833,Orthorhombic,38,Amm2,0.0,True,True,0.04921607686744463,Ti: 0.3333; Al: 0.3333; Cr: 0.3333
mp-1023303,NaMg6Al,"Al, Mg, Na",3,0.09567498133800334,Orthorhombic,38,Amm2,0.0,True,True,0.17088007490635063,Na: 0.1250; Mg: 0.7500; Al: 0.1250
mp-1028084,Mg14MnCd,"Cd, Mg, Mn",3,0.07979485481681015,Orthorhombic,38,Amm2,0.0,True,True,0.10546770832818923,Mg: 0.8750; Mn: 0.0625; Cd: 0.0625
mp-1215270,ZrTiAu,"Au, Ti, Zr",3,0.08542289833333427,Orthorhombic,38,Amm2,0.0,True,True,0.5279099249766847,Zr: 0.3333; Ti: 0.3333; Au: 0.3333
mp-1022924,LaYMg6,"La, Mg, Y",3,0.029946216250001267,Orthorhombic,38,Amm2,0.0,True,True,0.07154544010627092,La: 0.1250; Y: 0.1250; Mg: 0.7500
mp-1028004,SrMg14Zn,"Mg, Sr, Zn",3,0.08657190546875015,Orthorhombic,38,Amm2,0.0,True,True,0.12378787299247046,Sr: 0.0625; Mg: 0.8750; Zn: 0.0625
mp-1021274,LiMg6Cd,"Cd, Li, Mg",3,0.04111924562500002,Orthorhombic,38,Amm2,0.0,True,True,0.17782979924635803,Li: 0.1250; Mg: 0.7500; Cd: 0.1250
mp-1028052,LiYMg14,"Li, Mg, Y",3,0.057416504687499925,Orthorhombic,38,Amm2,0.0,True,True,0.08138450405329016,Li: 0.0625; Y: 0.0625; Mg: 0.8750
mp-1217864,TaVNi,"Ni, Ta, V",3,0.007231251500005698,Orthorhombic,38,Amm2,0.0,True,True,0.17107503227141785,Ta: 0.3333; V: 0.3333; Ni: 0.3333
mp-1027832,LiMg14Cu,"Cu, Li, Mg",3,0.057487218802083184,Orthorhombic,38,Amm2,0.0,True,True,0.1682213942992983,Li: 0.0625; Mg: 0.8750; Cu: 0.0625
mp-1026768,LiMg14Bi,"Bi, Li, Mg",3,0.06298857468749985,Orthorhombic,38,Amm2,0.0,True,True,0.19428957125898447,Li: 0.0625; Mg: 0.8750; Bi: 0.0625
mp-1026406,HfMg14Bi,"Bi, Hf, Mg",3,0.0686003192187501,Orthorhombic,38,Amm2,0.0,True,True,0.17204196435753688,Hf: 0.0625; Mg: 0.8750; Bi: 0.0625
mp-1227346,Ca2CuAg,"Ag, Ca, Cu",3,0.017097397249999702,Orthorhombic,38,Amm2,0.0,True,True,0.457622934302904,Ca: 0.5000; Cu: 0.2500; Ag: 0.2500
mp-1215712,Zr2CrFe3,"Cr, Fe, Zr",3,0.027001423333334884,Orthorhombic,38,Amm2,0.0,True,True,0.22388613177238112,Zr: 0.3333; Cr: 0.1667; Fe: 0.5000
mp-1023270,Mg6AlGa,"Al, Ga, Mg",3,0.06032870526041734,Orthorhombic,38,Amm2,0.0,True,True,0.18027756377319948,Mg: 0.7500; Al: 0.1250; Ga: 0.1250
mp-1228791,Ba36Al9Sn23,"Al, Ba, Sn",3,0.010711448639706855,Orthorhombic,38,Amm2,0.0,True,True,0.49680995771325376,Ba: 0.5294; Al: 0.1324; Sn: 0.3382
mp-1028360,LiMg14Ni,"Li, Mg, Ni",3,0.07969972770833356,Orthorhombic,38,Amm2,0.0,True,True,0.17035693227749787,Li: 0.0625; Mg: 0.8750; Ni: 0.0625
mp-1227265,Ca2PtAu,"Au, Ca, Pt",3,0.0,Orthorhombic,38,Amm2,0.0,True,True,0.7109676504595691,Ca: 0.5000; Pt: 0.2500; Au: 0.2500
mp-1026861,LiLaMg14,"La, Li, Mg",3,0.08759844156250018,Orthorhombic,38,Amm2,0.0,True,True,0.09177928687890315,Li: 0.0625; La: 0.0625; Mg: 0.8750
mp-1028247,YMg14Ni,"Mg, Ni, Y",3,0.08856766484375056,Orthorhombic,38,Amm2,0.0,True,True,0.14829104617272074,Y: 0.0625; Mg: 0.8750; Ni: 0.0625
mp-1021281,NaLiMg6,"Li, Mg, Na",3,0.0785493333477012,Orthorhombic,38,Amm2,0.0,True,True,0.15422690264671726,Na: 0.1250; Li: 0.1250; Mg: 0.7500
mp-1228374,Al5FeNi,"Al, Fe, Ni",3,0.037798949761903344,Orthorhombic,38,Amm2,0.0,True,True,0.11938618523300668,Al: 0.7143; Fe: 0.1429; Ni: 0.1429
mp-1028187,CaMg14Cu,"Ca, Cu, Mg",3,0.08463792421875005,Orthorhombic,38,Amm2,0.0,True,True,0.1656992757980553,Ca: 0.0625; Mg: 0.8750; Cu: 0.0625
mp-1028223,LiMg14Al,"Al, Li, Mg",3,0.04001149437500007,Orthorhombic,38,Amm2,0.0,True,True,0.11147974872146063,Li: 0.0625; Mg: 0.8750; Al: 0.0625
mp-1220492,NbAlCo,"Al, Co, Nb",3,0.048148003166664566,Orthorhombic,38,Amm2,0.0,True,True,0.12970050972229136,Nb: 0.3333; Al: 0.3333; Co: 0.3333
mp-1223377,La2CoSn4,"Co, La, Sn",3,0.012667471285713994,Orthorhombic,38,Amm2,0.0,True,True,0.3822383058367902,La: 0.2857; Co: 0.1429; Sn: 0.5714
mp-1215346,ZrAlCr,"Al, Cr, Zr",3,0.0834556655555545,Orthorhombic,38,Amm2,0.0,True,True,0.14522013940527972,Zr: 0.3333; Al: 0.3333; Cr: 0.3333
mp-1023262,Mg6AlBi,"Al, Bi, Mg",3,0.08573397619791612,Orthorhombic,38,Amm2,0.0,True,True,0.24150245857961775,Mg: 0.7500; Al: 0.1250; Bi: 0.1250
mp-1217200,Ti2Mn3V,"Mn, Ti, V",3,0.022869821244443145,Orthorhombic,38,Amm2,0.0,True,True,0.031622776601683736,Ti: 0.3333; Mn: 0.5000; V: 0.1667
mp-1026450,Mg14CdBi,"Bi, Cd, Mg",3,0.05549846765624955,Orthorhombic,38,Amm2,0.0,True,True,0.1894471809634548,Mg: 0.8750; Cd: 0.0625; Bi: 0.0625
mp-1218074,TaAlCu,"Al, Cu, Ta",3,0.014911570000002428,Orthorhombic,38,Amm2,0.0,True,True,0.16872067646458344,Ta: 0.3333; Al: 0.3333; Cu: 0.3333
mp-1022813,LiYMg6,"Li, Mg, Y",3,0.09553677687499951,Orthorhombic,38,Amm2,0.0,True,True,0.10894379284750465,Li: 0.1250; Y: 0.1250; Mg: 0.7500
mp-1215317,ZrAlOs,"Al, Os, Zr",3,0.025457287916665905,Orthorhombic,38,Amm2,0.0,True,True,0.3626139667592644,Zr: 0.3333; Al: 0.3333; Os: 0.3333
mp-1220482,NbAlCr,"Al, Cr, Nb",3,0.04571459980000192,Orthorhombic,38,Amm2,0.0,True,True,0.026246692913372623,Nb: 0.3333; Al: 0.3333; Cr: 0.3333
mp-1022597,LiMg6Zn,"Li, Mg, Zn",3,0.05936317562499993,Orthorhombic,38,Amm2,0.0,True,True,0.1675139919529112,Li: 0.1250; Mg: 0.7500; Zn: 0.1250
mp-1215281,ZrNbV,"Nb, V, Zr",3,0.02156834916666739,Orthorhombic,38,Amm2,0.0,True,True,0.13490737563232036,Zr: 0.3333; Nb: 0.3333; V: 0.3333
mp-1021403,LiMg6Sn,"Li, Mg, Sn",3,0.06339297906249985,Orthorhombic,38,Amm2,0.0,True,True,0.2546075411294803,Li: 0.1250; Mg: 0.7500; Sn: 0.1250
mp-1021408,NaMg6Sn,"Mg, Na, Sn",3,0.09280878687499983,Orthorhombic,38,Amm2,0.0,True,True,0.2640519598488146,Na: 0.1250; Mg: 0.7500; Sn: 0.1250
mp-1028138,Mg14MnZn,"Mg, Mn, Zn",3,0.08984557947931071,Orthorhombic,38,Amm2,0.0,True,True,0.09752403549894761,Mg: 0.8750; Mn: 0.0625; Zn: 0.0625
mp-1027999,Mg14ZnCu,"Cu, Mg, Zn",3,0.07357197312500019,Orthorhombic,38,Amm2,0.0,True,True,0.16000854469371312,Mg: 0.8750; Zn: 0.0625; Cu: 0.0625
mp-1028246,Mg14AlGa,"Al, Ga, Mg",3,0.04078822638020885,Orthorhombic,38,Amm2,0.0,True,True,0.13693063937629155,Mg: 0.8750; Al: 0.0625; Ga: 0.0625
mp-1026641,LiMg14Ti,"Li, Mg, Ti",3,0.0914088172916665,Orthorhombic,38,Amm2,0.0,True,True,0.10036651583072914,Li: 0.0625; Mg: 0.8750; Ti: 0.0625
mp-1224642,HfAlFe,"Al, Fe, Hf",3,0.0,Orthorhombic,38,Amm2,0.0,True,True,0.21740898478827103,Hf: 0.3333; Al: 0.3333; Fe: 0.3333
mp-1017291,NaMg6Cd,"Cd, Mg, Na",3,0.06970663670258626,Orthorhombic,38,Amm2,0.0,True,True,0.18999999999999997,Na: 0.1250; Mg: 0.7500; Cd: 0.1250
mp-1216913,TiMnAl,"Al, Mn, Ti",3,0.056383866666667615,Orthorhombic,38,Amm2,0.0,True,True,0.030912061651652372,Ti: 0.3333; Mn: 0.3333; Al: 0.3333
mp-1223426,La2Sn4Ir,"Ir, La, Sn",3,0.03841844208928791,Orthorhombic,38,Amm2,0.0,True,True,0.4181397091003563,La: 0.2857; Sn: 0.5714; Ir: 0.1429
mp-1028176,CaMg14Sn,"Ca, Mg, Sn",3,0.08502874500000002,Orthorhombic,38,Amm2,0.0,True,True,0.17877622185290748,Ca: 0.0625; Mg: 0.8750; Sn: 0.0625
mp-1028194,LiCaMg14,"Ca, Li, Mg",3,0.06335587281249988,Orthorhombic,38,Amm2,0.0,True,True,0.10588909292273688,Li: 0.0625; Ca: 0.0625; Mg: 0.8750
mp-1021278,LiMg6Ga,"Ga, Li, Mg",3,0.05405362974999939,Orthorhombic,38,Amm2,0.0,True,True,0.2107390269978487,Li: 0.1250; Mg: 0.7500; Ga: 0.1250
mp-1218063,TaCrNi,"Cr, Ni, Ta",3,0.06988949900000208,Orthorhombic,38,Amm2,0.0,True,True,0.1687206764645835,Ta: 0.3333; Cr: 0.3333; Ni: 0.3333
mp-1026407,Mg14GaBi,"Bi, Ga, Mg",3,0.06321431015624968,Orthorhombic,38,Amm2,0.0,True,True,0.20349965448373614,Mg: 0.8750; Ga: 0.0625; Bi: 0.0625
mp-1023295,NaMg6Al,"Al, Mg, Na",3,0.09534168821300337,Orthorhombic,38,Amm2,0.0,True,True,0.17088007490635063,Na: 0.1250; Mg: 0.7500; Al: 0.1250