material_id,formula,elements,num_elements,energy_above_hull,crystal_system,spacegroup_number,spacegroup_symbol,band_gap,theoretical,is_metal
mp-863744,Ca2PdAu,"Au, Ca, Pd",3,0.013046250833333772,Cubic,225,Fm-3m,0.0,True,True
mp-866012,Hf2ZnRe,"Hf, Re, Zn",3,0.0,Cubic,225,Fm-3m,0.0,True,True
mp-863724,InPd2Au,"Au, In, Pd",3,0.0,Cubic,225,Fm-3m,0.0,True,True
mp-867306,AlCuAu2,"Al, Au, Cu",3,0.0,Cubic,225,Fm-3m,0.0,True,True
mp-1207425,Zr6Be15Ni8,"Be, Ni, Zr",3,0.0,Cubic,225,Fm-3m,0.0,True,True
mp-867251,LiZn2Pt,"Li, Pt, Zn",3,0.0,Cubic,225,Fm-3m,0.0,True,True
mp-865717,Ti2ReIr,"Ir, Re, Ti",3,0.0,Cubic,225,Fm-3m,0.0,True,True
mp-20744,ZrInNi2,"In, Ni, Zr",3,0.0,Cubic,225,Fm-3m,0.0,False,True
mp-862743,LaCdAu2,"Au, Cd, La",3,0.0,Cubic,225,Fm-3m,0.0,True,True
mp-977162,NaTl2Pb,"Na, Pb, Tl",3,0.020959664166667835,Cubic,225,Fm-3m,0.0,True,True
mp-865503,YCdAg2,"Ag, Cd, Y",3,0.0,Cubic,225,Fm-3m,0.0,True,True
mp-982725,Nb2RuW,"Nb, Ru, W",3,0.0,Cubic,225,Fm-3m,0.0,True,True
mp-20265,LiIn2Pt,"In, Li, Pt",3,0.0,Cubic,225,Fm-3m,0.0,False,True
mp-973126,ScBiPd2,"Bi, Pd, Sc",3,0.07514109624999943,Cubic,225,Fm-3m,0.0,True,True
mp-1186935,Sc2CdOs,"Cd, Os, Sc",3,0.0019274264236104344,Cubic,225,Fm-3m,0.0,True,True
mp-972236,V2MoW,"Mo, V, W",3,0.0,Cubic,225,Fm-3m,0.0,True,True
mp-862663,LaPbAu2,"Au, La, Pb",3,0.0,Cubic,225,Fm-3m,0.0,True,True
mp-1184829,InFeRh2,"Fe, In, Rh",3,0.01502375249999588,Cubic,225,Fm-3m,0.0,True,True
mp-867287,LiInAu2,"Au, In, Li",3,0.0,Cubic,225,Fm-3m,0.0,True,True
mp-1183640,CdHgPd2,"Cd, Hg, Pd",3,0.005209170000000096,Cubic,225,Fm-3m,0.0,True,True
mp-867156,ScGaRu2,"Ga, Ru, Sc",3,0.0,Cubic,225,Fm-3m,0.0,True,True
mp-1186959,Sc2TlZn,"Sc, Tl, Zn",3,0.0,Cubic,225,Fm-3m,0.0,True,True
mp-1188004,Zr2TcRh,"Rh, Tc, Zr",3,0.0,Cubic,225,Fm-3m,0.0,True,True
mp-867848,LaMgCd2,"Cd, La, Mg",3,0.0,Cubic,225,Fm-3m,0.0,True,True
mp-862609,ScReTc2,"Re, Sc, Tc",3,0.04590053096353586,Cubic,225,Fm-3m,0.0,True,True
mp-867833,LaMgHg2,"Hg, La, Mg",3,0.0,Cubic,225,Fm-3m,0.0,True,True
mp-1186957,Sc2OsRh,"Os, Rh, Sc",3,0.0034690164236117482,Cubic,225,Fm-3m,0.0,True,True
mp-865569,Ti2MnIr,"Ir, Mn, Ti",3,0.0,Cubic,225,Fm-3m,0.0,True,True
mp-864948,MnGaPt2,"Ga, Mn, Pt",3,0.0090562918749999,Cubic,225,Fm-3m,0.0,True,True
mp-865164,HfCdCu2,"Cd, Cu, Hf",3,0.03930421125000194,Cubic,225,Fm-3m,0.0,True,True
mp-567787,LiInAg2,"Ag, In, Li",3,0.0,Cubic,225,Fm-3m,0.0,False,True
mp-979291,TaZnOs2,"Os, Ta, Zn",3,0.0,Cubic,225,Fm-3m,0.0,True,True
mp-1183198,Ba2CdSn,"Ba, Cd, Sn",3,0.004861536875002237,Cubic,225,Fm-3m,0.0,True,True
mp-867173,SrInHg2,"Hg, In, Sr",3,0.0,Cubic,225,Fm-3m,0.0,True,True
mp-1193205,Zr6Ga16Rh7,"Ga, Rh, Zr",3,0.0019322581884413381,Cubic,225,Fm-3m,0.0,False,True
mp-1183313,Ba2TlHg,"Ba, Hg, Tl",3,0.0,Cubic,225,Fm-3m,0.0,True,True
mp-865729,CaAg2Sn,"Ag, Ca, Sn",3,0.0,Cubic,225,Fm-3m,0.0,True,True
mp-1183135,Al2TcPd,"Al, Pd, Tc",3,0.002635897380947938,Cubic,225,Fm-3m,0.0,True,True
mp-861604,Ca2TlPb,"Ca, Pb, Tl",3,0.0,Cubic,225,Fm-3m,0.0,True,True
mp-865433,Y2MgRu,"Mg, Ru, Y",3,0.060845908562500384,Cubic,225,Fm-3m,0.0,True,True
mp-1183633,CdPd2Au,"Au, Cd, Pd",3,0.0,Cubic,225,Fm-3m,0.0,True,True
mp-972217,Ti2CuTc,"Cu, Tc, Ti",3,0.0,Cubic,225,Fm-3m,0.0,True,True
mp-862377,LiBe2Ir,"Be, Ir, Li",3,0.0,Cubic,225,Fm-3m,0.0,True,True
mp-1183503,Ca2HgBi,"Bi, Ca, Hg",3,0.020743057708333623,Cubic,225,Fm-3m,0.0,True,True
mp-981312,ZrCu2Hg,"Cu, Hg, Zr",3,0.02472129156862657,Cubic,225,Fm-3m,0.0,True,True
mp-867274,Be2CoIr,"Be, Co, Ir",3,0.0,Cubic,225,Fm-3m,0.0,True,True
mp-1187491,TiZn2Pd,"Pd, Ti, Zn",3,0.016788422499998568,Cubic,225,Fm-3m,0.0,True,True
mp-862368,Sc2NiPt,"Ni, Pt, Sc",3,0.0,Cubic,225,Fm-3m,0.0,True,True
mp-1183463,Ca2ZnGa,"Ca, Ga, Zn",3,0.005286312463234744,Cubic,225,Fm-3m,0.0,True,True
mp-1186185,NaTl2In,"In, Na, Tl",3,0.0,Cubic,225,Fm-3m,0.0,True,True
mp-864661,ZnCuPd2,"Cu, Pd, Zn",3,0.0,Cubic,225,Fm-3m,0.0,True,True
mp-1206362,HfAlPt2,"Al, Hf, Pt",3,0.07868096437499617,Cubic,225,Fm-3m,0.0,True,True
mp-1187419,Ti2GaTc,"Ga, Tc, Ti",3,0.018164497499999044,Cubic,225,Fm-3m,0.0,True,True
mp-864857,NbZnCo2,"Co, Nb, Zn",3,0.0,Cubic,225,Fm-3m,0.0,True,True
mp-1184754,K2RbBi,"Bi, K, Rb",3,0.007558438888888741,Cubic,225,Fm-3m,0.13990000000000014,True,False
mp-1183191,AlCuRh2,"Al, Cu, Rh",3,0.01457768500000256,Cubic,225,Fm-3m,0.0,True,True
mp-1186941,Sc2CuPd,"Cu, Pd, Sc",3,0.0,Cubic,225,Fm-3m,0.0,True,True
mp-865931,Ti2TcPd,"Pd, Tc, Ti",3,0.0,Cubic,225,Fm-3m,0.0,True,True
mp-1187730,Y2ZnRh,"Rh, Y, Zn",3,0.01105973446428532,Cubic,225,Fm-3m,0.0,True,True
mp-1185618,MgVRh2,"Mg, Rh, V",3,0.009542651250000311,Cubic,225,Fm-3m,0.0,True,True
mp-865707,TiSnRh2,"Rh, Sn, Ti",3,0.0,Cubic,225,Fm-3m,0.0,True,True
mp-864974,Hf2CuOs,"Cu, Hf, Os",3,0.012591963653848737,Cubic,225,Fm-3m,0.0,True,True
mp-600125,HfInCu2,"Cu, Hf, In",3,0.0,Cubic,225,Fm-3m,0.0,False,True
mp-867834,LiHfPt2,"Hf, Li, Pt",3,0.0,Cubic,225,Fm-3m,0.0,True,True
mp-867814,LaTlAu2,"Au, La, Tl",3,0.0,Cubic,225,Fm-3m,0.0,True,True
mp-1183453,Ca2TlHg,"Ca, Hg, Tl",3,0.0,Cubic,225,Fm-3m,0.0,True,True
mp-865987,Li2AgPd,"Ag, Li, Pd",3,0.0,Cubic,225,Fm-3m,0.0,True,True
mp-865966,BeAlIr2,"Al, Be, Ir",3,0.0,Cubic,225,Fm-3m,0.0,True,True
mp-1185542,CsK2Rb,"Cs, K, Rb",3,0.0380912645862066,Cubic,225,Fm-3m,0.0,True,True
mp-865128,NaSr2Tl,"Na, Sr, Tl",3,0.0,Cubic,225,Fm-3m,0.0,True,True
mp-30658,VGaNi2,"Ga, Ni, V",3,0.0223659731018504,Cubic,225,Fm-3m,0.0,False,True
mp-976261,NaCa2In,"Ca, In, Na",3,0.031864780362068856,Cubic,225,Fm-3m,0.0,True,True
mp-1185960,MgScAu2,"Au, Mg, Sc",3,0.0,Cubic,225,Fm-3m,0.0,True,True
mp-865582,Li2CdPd,"Cd, Li, Pd",3,0.0,Cubic,225,Fm-3m,0.0,True,True
mp-867235,LiY2Ir,"Ir, Li, Y",3,0.0,Cubic,225,Fm-3m,0.0,True,True
mp-862712,Sc2CoIr,"Co, Ir, Sc",3,0.0,Cubic,225,Fm-3m,0.0,True,True
mp-867280,Be2IrPt,"Be, Ir, Pt",3,0.0,Cubic,225,Fm-3m,0.0,True,True
mp-1184758,K2HgAu,"Au, Hg, K",3,0.023027889958331826,Cubic,225,Fm-3m,0.0,True,True
mp-672340,LiIn2Ru,"In, Li, Ru",3,0.037866556666667606,Cubic,225,Fm-3m,0.0,False,True
mp-867120,TaMn2Al,"Al, Mn, Ta",3,0.0,Cubic,225,Fm-3m,0.0,True,True
mp-867817,LaTlAg2,"Ag, La, Tl",3,0.03128740287990439,Cubic,225,Fm-3m,0.0,True,True
mp-1100772,TiVRu2,"Ru, Ti, V",3,0.035782760000000025,Cubic,225,Fm-3m,0.0,True,True
mp-1184587,Hf2MnOs,"Hf, Mn, Os",3,0.009691738645834391,Cubic,225,Fm-3m,0.0,True,True
mp-1187720,Y2AgAu,"Ag, Au, Y",3,0.011026152499997721,Cubic,225,Fm-3m,0.0,True,True
mp-977463,MgMnRh2,"Mg, Mn, Rh",3,0.0,Cubic,225,Fm-3m,0.0,True,True
mp-865097,NaHgPd2,"Hg, Na, Pd",3,0.0,Cubic,225,Fm-3m,0.0,True,True
mp-1185375,LiLaAu2,"Au, La, Li",3,0.010424881250001405,Cubic,225,Fm-3m,0.0,True,True
mp-864877,Hf2CoRe,"Co, Hf, Re",3,0.06133369991379212,Cubic,225,Fm-3m,0.0,True,True
mp-865021,Be2RuPt,"Be, Pt, Ru",3,0.0,Cubic,225,Fm-3m,0.0,True,True
mp-1185062,La2MgCd,"Cd, La, Mg",3,0.010146166250001976,Cubic,225,Fm-3m,0.0,True,True
mp-22221,MnCu2Sn,"Cu, Mn, Sn",3,0.09683388051724151,Cubic,225,Fm-3m,0.0,False,True
mp-864989,Mn2AlRe,"Al, Mn, Re",3,0.0,Cubic,225,Fm-3m,0.0,True,True
mp-1187718,Y2CuOs,"Cu, Os, Y",3,0.031518477500000586,Cubic,225,Fm-3m,0.0,True,True
mp-20840,MnCo2Sn,"Co, Mn, Sn",3,0.0,Cubic,225,Fm-3m,0.0,False,True
mp-862256,Cu2PdAu,"Au, Cu, Pd",3,0.0,Cubic,225,Fm-3m,0.0,True,True
mp-1185359,LiMg2Cd,"Cd, Li, Mg",3,0.0,Cubic,225,Fm-3m,0.0,True,True
mp-865964,Li2CaSn,"Ca, Li, Sn",3,0.0,Cubic,225,Fm-3m,0.0,True,True
mp-1187068,Sr2GaHg,"Ga, Hg, Sr",3,0.019191001805556773,Cubic,225,Fm-3m,0.0,True,True
mp-866156,YGaRh2,"Ga, Rh, Y",3,0.0,Cubic,225,Fm-3m,0.0,True,True
mp-984721,BeGaCo2,"Be, Co, Ga",3,0.00802906250000035,Cubic,225,Fm-3m,0.0,True,True
mp-1185317,LiBe2Pt,"Be, Li, Pt",3,0.0,Cubic,225,Fm-3m,0.0,True,True
mp-861663,LiRh2Pb,"Li, Pb, Rh",3,0.0,Cubic,225,Fm-3m,0.0,True,True
mp-865499,V2TcOs,"Os, Tc, V",3,0.0,Cubic,225,Fm-3m,0.0,True,True
mp-1185957,MgScIr2,"Ir, Mg, Sc",3,0.004180634144735684,Cubic,225,Fm-3m,0.0,True,True
mp-864650,Ta2OsW,"Os, Ta, W",3,0.0,Cubic,225,Fm-3m,0.0,True,True
mp-1188059,ZrGaRu2,"Ga, Ru, Zr",3,0.0,Cubic,225,Fm-3m,0.0,True,True
mp-862473,Sc2AgRu,"Ag, Ru, Sc",3,0.0,Cubic,225,Fm-3m,0.0,True,True
mp-977382,Ta2VRu,"Ru, Ta, V",3,0.0,Cubic,225,Fm-3m,0.0,True,True
mp-1185358,LiMgCd2,"Cd, Li, Mg",3,0.004020874166665855,Cubic,225,Fm-3m,0.0,True,True
mp-867171,SrLi2Sn,"Li, Sn, Sr",3,0.0,Cubic,225,Fm-3m,0.0,True,True
mp-1193571,Sc6Ga16Rh7,"Ga, Rh, Sc",3,0.005756664581737958,Cubic,225,Fm-3m,0.0,False,True
mp-1183953,CsKRb2,"Cs, K, Rb",3,0.030976172023706394,Cubic,225,Fm-3m,0.0,True,True
mp-972898,Sc2GaAu,"Au, Ga, Sc",3,0.023590276249997544,Cubic,225,Fm-3m,0.0,True,True
mp-981368,Zn2PdPt,"Pd, Pt, Zn",3,0.009113717499999119,Cubic,225,Fm-3m,0.0,True,True
mp-21235,Mn2VGa,"Ga, Mn, V",3,0.0,Cubic,225,Fm-3m,0.0,False,True
mp-864840,NbZnRu2,"Nb, Ru, Zn",3,0.0,Cubic,225,Fm-3m,0.0,True,True
mp-1194145,Zr6Ga16Pd7,"Ga, Pd, Zr",3,0.038117471810345194,Cubic,225,Fm-3m,0.0,False,True
mp-864950,MnAlIr2,"Al, Ir, Mn",3,0.0,Cubic,225,Fm-3m,0.0,True,True
mp-973141,ScCdCu2,"Cd, Cu, Sc",3,0.0033742649999979335,Cubic,225,Fm-3m,0.0,True,True
mp-862293,La2AgIr,"Ag, Ir, La",3,0.07600533124999487,Cubic,225,Fm-3m,0.0,True,True
mp-1208242,Ti6Be15Cu8,"Be, Cu, Ti",3,0.0,Cubic,225,Fm-3m,0.0,True,True
mp-979910,VCuRh2,"Cu, Rh, V",3,0.0,Cubic,225,Fm-3m,0.0,True,True
mp-973847,La2ZnGa,"Ga, La, Zn",3,0.025233581875003352,Cubic,225,Fm-3m,0.0,True,True
mp-1183579,CaLaAu2,"Au, Ca, La",3,0.0,Cubic,225,Fm-3m,0.0,True,True
mp-862340,Sc2GaCu,"Cu, Ga, Sc",3,0.0,Cubic,225,Fm-3m,0.0,True,True
mp-862338,Sc2CuRu,"Cu, Ru, Sc",3,0.0,Cubic,225,Fm-3m,0.0,True,True
mp-30759,LiMg2Tl,"Li, Mg, Tl",3,0.02752258750000025,Cubic,225,Fm-3m,0.0,False,True
mp-866163,YInRh2,"In, Rh, Y",3,0.0,Cubic,225,Fm-3m,0.0,True,True
mp-1206110,MnCuPt6,"Cu, Mn, Pt",3,0.025806643333331714,Cubic,225,Fm-3m,0.0,True,True
mp-977115,NaSrHg2,"Hg, Na, Sr",3,0.007105399375001653,Cubic,225,Fm-3m,0.0,True,True
mp-1185624,MgZrNi2,"Mg, Ni, Zr",3,0.011208180625001063,Cubic,225,Fm-3m,0.0,True,True
mp-30758,Li2MgPb,"Li, Mg, Pb",3,0.028502059999997442,Cubic,225,Fm-3m,0.0,False,True
mp-1185761,Mg2CdPd,"Cd, Mg, Pd",3,0.025942002916667484,Cubic,225,Fm-3m,0.0,True,True
mp-862445,TaAlOs2,"Al, Os, Ta",3,0.0,Cubic,225,Fm-3m,0.0,True,True
mp-863690,Ti2MnCo,"Co, Mn, Ti",3,0.0,Cubic,225,Fm-3m,0.0,True,True
mp-865002,CaYRh2,"Ca, Rh, Y",3,0.001578520486111401,Cubic,225,Fm-3m,0.0,True,True
mp-1185323,LiHfAu2,"Au, Hf, Li",3,0.01324980374999285,Cubic,225,Fm-3m,0.0,True,True
mp-867798,La2AgRu,"Ag, La, Ru",3,0.05268616839285656,Cubic,225,Fm-3m,0.0,True,True
mp-864927,Hf2ReOs,"Hf, Os, Re",3,0.01922075509999921,Cubic,225,Fm-3m,0.0,True,True
mp-16482,TiAlAu2,"Al, Au, Ti",3,0.02832234666666622,Cubic,225,Fm-3m,0.0,False,True
mp-1183158,AlGaIr2,"Al, Ga, Ir",3,0.012601042500001824,Cubic,225,Fm-3m,0.0,True,True
mp-640898,La6Mg22Al,"Al, La, Mg",3,0.05154074594827662,Cubic,225,Fm-3m,0.0,False,True
mp-1187420,Ti2MoOs,"Mo, Os, Ti",3,0.021620270000003217,Cubic,225,Fm-3m,0.0,True,True
mp-975780,Li2TlSn,"Li, Sn, Tl",3,0.00692713083333274,Cubic,225,Fm-3m,0.0,True,True
mp-1184983,Li2CdBi,"Bi, Cd, Li",3,0.014334680000001043,Cubic,225,Fm-3m,0.0,True,True
mp-12128,Li2MgIn,"In, Li, Mg",3,0.0,Cubic,225,Fm-3m,0.0,False,True
mp-862318,LiAl2Ni,"Al, Li, Ni",3,0.0,Cubic,225,Fm-3m,0.0,True,True
mp-978266,Mg2ZnPt,"Mg, Pt, Zn",3,0.019372948928570555,Cubic,225,Fm-3m,0.0,True,True
mp-861932,LiZnAu2,"Au, Li, Zn",3,0.0,Cubic,225,Fm-3m,0.0,True,True
mp-866162,YMgAg2,"Ag, Mg, Y",3,0.0,Cubic,225,Fm-3m,0.0,True,True
mp-977568,ZrSnPd2,"Pd, Sn, Zr",3,0.04967313333332868,Cubic,225,Fm-3m,0.0,True,True
mp-864965,Mg2RhAu,"Au, Mg, Rh",3,0.0,Cubic,225,Fm-3m,0.0,True,True
mp-865155,MgAlRh2,"Al, Mg, Rh",3,0.0,Cubic,225,Fm-3m,0.0,True,True
mp-867198,LiGaPd2,"Ga, Li, Pd",3,0.0,Cubic,225,Fm-3m,0.0,True,True
mp-865101,NaLi2Bi,"Bi, Li, Na",3,0.0,Cubic,225,Fm-3m,0.32509999999999994,True,False
mp-567959,Sr11Ga4Sn3,"Ga, Sn, Sr",3,0.0005896624603174416,Cubic,225,Fm-3m,0.0,False,True
mp-1186006,MnV2Ru,"Mn, Ru, V",3,0.048536869166667884,Cubic,225,Fm-3m,0.0,True,True
mp-1186196,NaYTl2,"Na, Tl, Y",3,0.0,Cubic,225,Fm-3m,0.0,True,True
mp-20440,MnNi2Sn,"Mn, Ni, Sn",3,0.01119294053519937,Cubic,225,Fm-3m,0.0,False,True
mp-867788,TaGaOs2,"Ga, Os, Ta",3,0.0,Cubic,225,Fm-3m,0.0,True,True
mp-1188001,Zr2TcIr,"Ir, Tc, Zr",3,0.0,Cubic,225,Fm-3m,0.0,True,True
mp-1187090,Sr2LiRh,"Li, Rh, Sr",3,0.010137876505680321,Cubic,225,Fm-3m,0.12449999999999983,True,False
mp-862311,Sc2GaRu,"Ga, Ru, Sc",3,0.0,Cubic,225,Fm-3m,0.0,True,True
mp-976114,Li2CdHg,"Cd, Hg, Li",3,0.0006501099999987048,Cubic,225,Fm-3m,0.0,True,True
mp-1186207,Nb2ReRu,"Nb, Re, Ru",3,0.0,Cubic,225,Fm-3m,0.0,True,True
mp-1185749,Mg2AgPd,"Ag, Mg, Pd",3,0.008508659999999946,Cubic,225,Fm-3m,0.0,True,True
mp-865462,MnV2Os,"Mn, Os, V",3,0.011769333879318111,Cubic,225,Fm-3m,0.0,True,True
mp-867179,SrCdHg2,"Cd, Hg, Sr",3,0.008872362465274897,Cubic,225,Fm-3m,0.0,True,True
mp-30595,CuSnRh2,"Cu, Rh, Sn",3,0.0,Cubic,225,Fm-3m,0.0,False,True
mp-1185418,LiZnPt2,"Li, Pt, Zn",3,0.0,Cubic,225,Fm-3m,0.0,True,True
mp-866164,YMgHg2,"Hg, Mg, Y",3,0.0,Cubic,225,Fm-3m,0.0,True,True
mp-862264,Sc2ZnTc,"Sc, Tc, Zn",3,0.0005834278125007586,Cubic,225,Fm-3m,0.0,True,True
mp-865524,YCdPt2,"Cd, Pt, Y",3,0.012575528749997567,Cubic,225,Fm-3m,0.0,True,True
mp-1194036,Hf6Zn16Cu7,"Cu, Hf, Zn",3,0.0,Cubic,225,Fm-3m,0.0,False,True
mp-31171,Zn2AgAu,"Ag, Au, Zn",3,0.0,Cubic,225,Fm-3m,0.0,False,True
mp-1187722,Y2TlHg,"Hg, Tl, Y",3,0.0,Cubic,225,Fm-3m,0.0,True,True
mp-865019,HfGaRh2,"Ga, Hf, Rh",3,0.0,Cubic,225,Fm-3m,0.0,True,True
mp-1187707,Y2AlCd,"Al, Cd, Y",3,0.0031007727083336434,Cubic,225,Fm-3m,0.0,True,True
mp-4913,LiGa2Rh,"Ga, Li, Rh",3,0.0,Cubic,225,Fm-3m,0.0,False,True
mp-1194264,Sc6Al16Ni7,"Al, Ni, Sc",3,0.014458375517241606,Cubic,225,Fm-3m,0.0,False,True
mp-22580,ZrGaNi2,"Ga, Ni, Zr",3,0.016642819502688866,Cubic,225,Fm-3m,0.0,False,True
mp-11400,ScGaNi2,"Ga, Ni, Sc",3,0.0,Cubic,225,Fm-3m,0.0,False,True
mp-867958,TaInRu2,"In, Ru, Ta",3,0.0,Cubic,225,Fm-3m,0.0,True,True
mp-1186936,Sc2CoNi,"Co, Ni, Sc",3,0.01118606749999973,Cubic,225,Fm-3m,0.0,True,True
mp-865442,TiAlOs2,"Al, Os, Ti",3,0.0,Cubic,225,Fm-3m,0.0,True,True
mp-980948,SrCaIn2,"Ca, In, Sr",3,0.02812848656249889,Cubic,225,Fm-3m,0.0,True,True
mp-862600,Be2PtRh,"Be, Pt, Rh",3,0.0,Cubic,225,Fm-3m,0.0,True,True
mp-865174,HfCdRh2,"Cd, Hf, Rh",3,0.0,Cubic,225,Fm-3m,0.0,True,True
mp-867116,BeGaIr2,"Be, Ga, Ir",3,0.0,Cubic,225,Fm-3m,0.0,True,True
mp-971738,ZnCuNi2,"Cu, Ni, Zn",3,0.007258229999999699,Cubic,225,Fm-3m,0.0,True,True
mp-864919,MgTiRh2,"Mg, Rh, Ti",3,0.0,Cubic,225,Fm-3m,0.0,True,True
mp-1187768,Y2ZnGa,"Ga, Y, Zn",3,0.00638213375000074,Cubic,225,Fm-3m,0.0,True,True
mp-1184582,HfNbRu2,"Hf, Nb, Ru",3,0.020769837499997834,Cubic,225,Fm-3m,0.0,True,True
mp-1186125,NaCd2Pd,"Cd, Na, Pd",3,0.013825446272521802,Cubic,225,Fm-3m,0.0,True,True
mp-10899,AlVNi2,"Al, Ni, V",3,0.04628494739583289,Cubic,225,Fm-3m,0.0,False,True
mp-973564,La2TlZn,"La, Tl, Zn",3,0.014424927499996798,Cubic,225,Fm-3m,0.0,True,True
mp-867117,Sc2CuPt,"Cu, Pt, Sc",3,0.0,Cubic,225,Fm-3m,0.0,True,True
mp-30821,LiAl2Rh,"Al, Li, Rh",3,0.0,Cubic,225,Fm-3m,0.0,False,True
mp-20521,ScInPt2,"In, Pt, Sc",3,0.0,Cubic,225,Fm-3m,0.0,False,True
mp-862553,Sc2BeRu,"Be, Ru, Sc",3,0.039438873928571816,Cubic,225,Fm-3m,0.0,True,True
mp-865167,Ca2CdPb,"Ca, Cd, Pb",3,0.0,Cubic,225,Fm-3m,0.0,True,True
mp-1187072,Sr2CdGa,"Cd, Ga, Sr",3,0.021435529305556145,Cubic,225,Fm-3m,0.0,True,True
mp-865126,NaTlPd2,"Na, Pd, Tl",3,0.0,Cubic,225,Fm-3m,0.0,True,True
mp-861624,LiLaHg2,"Hg, La, Li",3,0.0,Cubic,225,Fm-3m,0.0,True,True
mp-1185894,MgMnIr2,"Ir, Mg, Mn",3,0.02843825296874769,Cubic,225,Fm-3m,0.0,True,True
mp-1183299,BaHg2Bi,"Ba, Bi, Hg",3,0.0021709874999986667,Cubic,225,Fm-3m,0.0,True,True
mp-1185975,MgTiCo2,"Co, Mg, Ti",3,0.021323858750000646,Cubic,225,Fm-3m,0.0,True,True
mp-1185018,La2RuAu,"Au, La, Ru",3,0.0613830551785739,Cubic,225,Fm-3m,0.0,True,True
mp-972884,Sc2AlCu,"Al, Cu, Sc",3,0.021006542500000336,Cubic,225,Fm-3m,0.0,True,True
mp-1018046,MnGaFe2,"Fe, Ga, Mn",3,0.03846181778286617,Cubic,225,Fm-3m,0.0,True,True
mp-1183457,Ca2MgCd,"Ca, Cd, Mg",3,0.013381728437499518,Cubic,225,Fm-3m,0.0,True,True
mp-1206745,LiMg2Pb,"Li, Mg, Pb",3,0.06043892937499917,Cubic,225,Fm-3m,0.0,True,True
mp-976330,LiZr2Ir,"Ir, Li, Zr",3,0.026766439375006,Cubic,225,Fm-3m,0.0,True,True
mp-636599,FeSnRu2,"Fe, Ru, Sn",3,0.05873314607142888,Cubic,225,Fm-3m,0.0,False,True
mp-867167,LiCa2Tl,"Ca, Li, Tl",3,0.0,Cubic,225,Fm-3m,0.0,True,True
mp-867877,LiCdAu2,"Au, Cd, Li",3,0.0,Cubic,225,Fm-3m,0.0,True,True
mp-865925,LiZrIr2,"Ir, Li, Zr",3,0.0,Cubic,225,Fm-3m,0.0,True,True
mp-1187911,ZnGaCo2,"Co, Ga, Zn",3,0.036304687386364165,Cubic,225,Fm-3m,0.0,True,True
mp-30555,TaGaCo2,"Co, Ga, Ta",3,0.0,Cubic,225,Fm-3m,0.0,False,True
mp-1185178,La2SnHg,"Hg, La, Sn",3,0.011145494843749049,Cubic,225,Fm-3m,0.0,True,True
mp-1184974,Li2ScIn,"In, Li, Sc",3,0.013468868214285834,Cubic,225,Fm-3m,0.07179999999999964,True,False
mp-983480,Hf6Al16Rh7,"Al, Hf, Rh",3,0.0,Cubic,225,Fm-3m,0.0,False,True
mp-1184572,HfMgPt2,"Hf, Mg, Pt",3,0.0,Cubic,225,Fm-3m,0.0,True,True
mp-867840,BeFeRh2,"Be, Fe, Rh",3,0.0,Cubic,225,Fm-3m,0.0,True,True
mp-1194423,Zr6Al16Co7,"Al, Co, Zr",3,0.0,Cubic,225,Fm-3m,0.0,False,True
mp-865234,TaZnRu2,"Ru, Ta, Zn",3,0.0,Cubic,225,Fm-3m,0.0,True,True
mp-1185364,LiMgAg2,"Ag, Li, Mg",3,0.0,Cubic,225,Fm-3m,0.0,True,True
mp-973443,Hf2ReTc,"Hf, Re, Tc",3,0.027327045099999836,Cubic,225,Fm-3m,0.0,True,True
mp-864990,Mn2AlW,"Al, Mn, W",3,0.0,Cubic,225,Fm-3m,0.0,True,True
mp-862374,CdInPd2,"Cd, In, Pd",3,0.0,Cubic,225,Fm-3m,0.0,True,True
mp-4813,NbAlNi2,"Al, Nb, Ni",3,0.00719846491666587,Cubic,225,Fm-3m,0.0,False,True
mp-862431,Sc2AgOs,"Ag, Os, Sc",3,0.0,Cubic,225,Fm-3m,0.0,True,True
mp-980661,YTlAg2,"Ag, Tl, Y",3,0.02139166263482295,Cubic,225,Fm-3m,0.0,True,True
mp-5491,MnAlAu2,"Al, Au, Mn",3,0.0,Cubic,225,Fm-3m,0.0,False,True
mp-1185923,MgPd2Au,"Au, Mg, Pd",3,0.0,Cubic,225,Fm-3m,0.0,True,True
mp-1208277,Ti6Al16Fe7,"Al, Fe, Ti",3,0.032533209094828486,Cubic,225,Fm-3m,0.0,True,True
mp-862290,LiFeRh2,"Fe, Li, Rh",3,0.0,Cubic,225,Fm-3m,0.0,True,True
mp-11293,ZrCdCu2,"Cd, Cu, Zr",3,0.0,Cubic,225,Fm-3m,0.0,False,True
mp-865930,TiZnCu2,"Cu, Ti, Zn",3,0.0,Cubic,225,Fm-3m,0.0,True,True
mp-1212443,Hf6Be15Pd8,"Be, Hf, Pd",3,0.0,Cubic,225,Fm-3m,0.0,True,True
mp-13396,LiIn2Rh,"In, Li, Rh",3,0.0,Cubic,225,Fm-3m,0.0,False,True
mp-1184966,Li2CdPt,"Cd, Li, Pt",3,0.002039351250000543,Cubic,225,Fm-3m,0.0,True,True
mp-863727,LiTiRh2,"Li, Rh, Ti",3,0.0,Cubic,225,Fm-3m,0.0,True,True
mp-3539,NbGaNi2,"Ga, Nb, Ni",3,0.011909727114487012,Cubic,225,Fm-3m,0.0,False,True
mp-862376,Sc2CuTc,"Cu, Sc, Tc",3,0.0017331678125005467,Cubic,225,Fm-3m,0.0,True,True
mp-983430,HfZnPt2,"Hf, Pt, Zn",3,0.005494643124997367,Cubic,225,Fm-3m,0.0,True,True
mp-1186124,NaCa2Rh,"Ca, Na, Rh",3,0.08924702732040224,Cubic,225,Fm-3m,0.0,True,True
mp-864762,LiMg2Zn,"Li, Mg, Zn",3,0.0,Cubic,225,Fm-3m,0.0,True,True
mp-864639,Ta2NbOs,"Nb, Os, Ta",3,0.0,Cubic,225,Fm-3m,0.0,True,True
mp-1206591,CrSnRu2,"Cr, Ru, Sn",3,0.006014486071428848,Cubic,225,Fm-3m,0.0,True,True
mp-1184970,Li2HgBi,"Bi, Hg, Li",3,0.0,Cubic,225,Fm-3m,0.0,True,True
mp-1187921,ZnRu2W,"Ru, W, Zn",3,0.0,Cubic,225,Fm-3m,0.0,True,True
mp-976600,LiHf2Tc,"Hf, Li, Tc",3,0.0325120033333306,Cubic,225,Fm-3m,0.0,True,True
mp-864908,MgTiIr2,"Ir, Mg, Ti",3,0.0,Cubic,225,Fm-3m,0.013099999999999667,True,False
mp-1183461,Ca2TlZn,"Ca, Tl, Zn",3,0.00033388624999908245,Cubic,225,Fm-3m,0.0,True,True
mp-30844,ScSnPt2,"Pt, Sc, Sn",3,0.052317237777777414,Cubic,225,Fm-3m,0.0,False,True
mp-1185763,Mg2GaPd,"Ga, Mg, Pd",3,0.01422374250000047,Cubic,225,Fm-3m,0.0,True,True
mp-672259,AlFe2Mo,"Al, Fe, Mo",3,0.03793002458333561,Cubic,225,Fm-3m,0.0,False,True
mp-1187184,SrLi2In,"In, Li, Sr",3,0.02504385395220643,Cubic,225,Fm-3m,0.0,True,True
mp-864630,LiMg2Hg,"Hg, Li, Mg",3,0.0,Cubic,225,Fm-3m,0.0,True,True
mp-1185767,Mg2IrPd,"Ir, Mg, Pd",3,0.036997494144737075,Cubic,225,Fm-3m,0.0,True,True
mp-20491,LaInCu2,"Cu, In, La",3,0.030221376500001895,Cubic,225,Fm-3m,0.0,False,True
mp-865232,TlPd2Au,"Au, Pd, Tl",3,0.0028605368452332414,Cubic,225,Fm-3m,0.0,True,True