material_id,formula,elements,num_elements,energy_above_hull,crystal_system,spacegroup_number,spacegroup_symbol,band_gap,theoretical,is_metal
mp-1185981,Mn2IrRh,"Ir, Mn, Rh",3,0.0,Cubic,225,Fm-3m,0.0,True,True
mp-1184589,HfTc2Mo,"Hf, Mo, Tc",3,0.0,Cubic,225,Fm-3m,0.0,True,True
mp-1184568,Hf2ZnTc,"Hf, Tc, Zn",3,0.0,Cubic,225,Fm-3m,0.0,True,True
mp-864607,ZrCdPd2,"Cd, Pd, Zr",3,0.0,Cubic,225,Fm-3m,0.0,True,True
mp-865743,Ga2IrRh,"Ga, Ir, Rh",3,0.0,Cubic,225,Fm-3m,0.0,True,True
mp-1185251,LiY2Hg,"Hg, Li, Y",3,0.0007788608333321179,Cubic,225,Fm-3m,0.0,True,True
mp-867802,Sc2CuOs,"Cu, Os, Sc",3,0.0,Cubic,225,Fm-3m,0.0,True,True
mp-982443,NaCaPb2,"Ca, Na, Pb",3,0.014449742968751345,Cubic,225,Fm-3m,0.0,True,True
mp-1187238,TaMn2Ga,"Ga, Mn, Ta",3,0.07336049218749707,Cubic,225,Fm-3m,0.0,True,True
mp-10873,ScAlAu2,"Al, Au, Sc",3,0.0,Cubic,225,Fm-3m,0.0,False,True
mp-865030,HfScRu2,"Hf, Ru, Sc",3,0.0,Cubic,225,Fm-3m,0.0,True,True
mp-866071,MgTaOs2,"Mg, Os, Ta",3,0.0,Cubic,225,Fm-3m,0.0,True,True
mp-864651,Ta2NbRu,"Nb, Ru, Ta",3,0.0,Cubic,225,Fm-3m,0.0,True,True
mp-1187704,Y2ZnAg,"Ag, Y, Zn",3,0.01242043749999766,Cubic,225,Fm-3m,0.0,True,True
mp-977362,ZnGaRh2,"Ga, Rh, Zn",3,0.0,Cubic,225,Fm-3m,0.0,True,True
mp-571154,Sr11Al4Sn3,"Al, Sn, Sr",3,0.001154658940331288,Cubic,225,Fm-3m,0.0,False,True
mp-1183583,CaYZn2,"Ca, Y, Zn",3,0.0018815937500002988,Cubic,225,Fm-3m,0.0,True,True
mp-861983,Ti2MnFe,"Fe, Mn, Ti",3,0.0,Cubic,225,Fm-3m,0.0,True,True
mp-1183148,AlGaCo2,"Al, Co, Ga",3,0.003663324999999773,Cubic,225,Fm-3m,0.0,True,True
mp-12580,Li2CdSn,"Cd, Li, Sn",3,0.0,Cubic,225,Fm-3m,0.0,False,True
mp-1187121,Sr2MgIn,"In, Mg, Sr",3,6.554831801386385e-05,Cubic,225,Fm-3m,0.0,True,True
mp-4536,ScNi2Sn,"Ni, Sc, Sn",3,0.0,Cubic,225,Fm-3m,0.0,False,True
mp-864902,MgTlRh2,"Mg, Rh, Tl",3,0.0,Cubic,225,Fm-3m,0.0,True,True
mp-972396,Ti2MnRe,"Mn, Re, Ti",3,0.0228985784499951,Cubic,225,Fm-3m,0.0,True,True
mp-1185766,Mg2IrRh,"Ir, Mg, Rh",3,0.05051019664473699,Cubic,225,Fm-3m,0.0,True,True
mp-861930,LiPdAu2,"Au, Li, Pd",3,0.0,Cubic,225,Fm-3m,0.0,True,True
mp-977425,Ta2CrRu,"Cr, Ru, Ta",3,0.0,Cubic,225,Fm-3m,0.0,True,True
mp-1187706,Y2CdHg,"Cd, Hg, Y",3,0.0089803650000011,Cubic,225,Fm-3m,0.0,True,True
mp-864844,Zn2RhAu,"Au, Rh, Zn",3,0.0,Cubic,225,Fm-3m,0.0,True,True
mp-1184967,Li2PbAu,"Au, Li, Pb",3,0.021198090000000835,Cubic,225,Fm-3m,0.0,True,True
mp-1185943,MgRu2W,"Mg, Ru, W",3,0.0,Cubic,225,Fm-3m,0.0,True,True
mp-862257,Sc2ZnAu,"Au, Sc, Zn",3,0.0,Cubic,225,Fm-3m,0.0,True,True
mp-1185126,Li2YAl,"Al, Li, Y",3,0.021986638194444907,Cubic,225,Fm-3m,0.00010000000000021103,True,False
mp-865651,Y2TlCd,"Cd, Tl, Y",3,0.0,Cubic,225,Fm-3m,0.0,True,True
mp-867881,ScTlRh2,"Rh, Sc, Tl",3,0.0,Cubic,225,Fm-3m,0.0,True,True
mp-865138,Hf2MnIr,"Hf, Ir, Mn",3,0.0,Cubic,225,Fm-3m,0.0,True,True
mp-1184030,GaCuPd2,"Cu, Ga, Pd",3,0.0009198587500023336,Cubic,225,Fm-3m,0.0,True,True
mp-1187757,Y2RuAu,"Au, Ru, Y",3,0.029723401562500307,Cubic,225,Fm-3m,0.0,True,True
mp-865926,Cd2PdRh,"Cd, Pd, Rh",3,0.0,Cubic,225,Fm-3m,0.0,True,True
mp-862312,LiBePd2,"Be, Li, Pd",3,0.0,Cubic,225,Fm-3m,0.0,True,True
mp-865150,MgCdAu2,"Au, Cd, Mg",3,0.01627025500000201,Cubic,225,Fm-3m,0.0,True,True
mp-862366,Sc2TlAg,"Ag, Sc, Tl",3,0.0,Cubic,225,Fm-3m,0.0,True,True
mp-866140,TiGaPd2,"Ga, Pd, Ti",3,0.0,Cubic,225,Fm-3m,0.0,True,True
mp-977571,MgRh2Pb,"Mg, Pb, Rh",3,0.0,Cubic,225,Fm-3m,0.0,True,True
mp-1187721,Y2MgTl,"Mg, Tl, Y",3,0.011352147916666944,Cubic,225,Fm-3m,0.0,True,True
mp-867148,LiHfRh2,"Hf, Li, Rh",3,0.0,Cubic,225,Fm-3m,0.0,True,True
mp-866051,HfFe2Sn,"Fe, Hf, Sn",3,0.009963828750001902,Cubic,225,Fm-3m,0.02099999999999902,True,False
mp-865082,NaCaAu2,"Au, Ca, Na",3,0.005945694687497394,Cubic,225,Fm-3m,0.0,True,True
mp-1187708,Y2AlAg,"Ag, Al, Y",3,0.007891503749998918,Cubic,225,Fm-3m,0.0,True,True
mp-3791,ScCo2Sn,"Co, Sc, Sn",3,0.0,Cubic,225,Fm-3m,0.0,False,True
mp-1185101,LaYZn2,"La, Y, Zn",3,0.020421087500000823,Cubic,225,Fm-3m,0.0,True,True
mp-862360,Sc2NiIr,"Ir, Ni, Sc",3,0.0,Cubic,225,Fm-3m,0.0,True,True
mp-22493,YInAu2,"Au, In, Y",3,0.0,Cubic,225,Fm-3m,0.0,False,True
mp-866292,Ba2TlCd,"Ba, Cd, Tl",3,0.0,Cubic,225,Fm-3m,0.0,True,True
mp-1193272,Zr6Al16Pt7,"Al, Pt, Zr",3,0.0,Cubic,225,Fm-3m,0.0,False,True
mp-861916,La2IrPd,"Ir, La, Pd",3,0.03196737124999949,Cubic,225,Fm-3m,0.0,True,True
mp-866117,HfZnAu2,"Au, Hf, Zn",3,0.0,Cubic,225,Fm-3m,0.0,True,True
mp-1187935,ZnGaNi2,"Ga, Ni, Zn",3,0.0,Cubic,225,Fm-3m,0.0,True,True
mp-1183470,Ca2ZnPb,"Ca, Pb, Zn",3,0.0037649670000008406,Cubic,225,Fm-3m,0.0,True,True
mp-862775,LiInRh2,"In, Li, Rh",3,0.0111117833333374,Cubic,225,Fm-3m,0.0,True,True
mp-865656,TiMn2W,"Mn, Ti, W",3,0.0,Cubic,225,Fm-3m,0.0,True,True
mp-861878,Cd2AgRh,"Ag, Cd, Rh",3,0.0,Cubic,225,Fm-3m,0.0,True,True
mp-866229,Ca2SnHg,"Ca, Hg, Sn",3,0.0,Cubic,225,Fm-3m,0.1485000000000003,True,False
mp-1187201,Ta2VRe,"Re, Ta, V",3,0.0,Cubic,225,Fm-3m,0.0,True,True
mp-867475,TaSnRu2,"Ru, Sn, Ta",3,0.0,Cubic,225,Fm-3m,0.0,True,True
mp-1187417,Ti2MoPd,"Mo, Pd, Ti",3,0.0,Cubic,225,Fm-3m,0.0,True,True
mp-977356,ZnGaIr2,"Ga, Ir, Zn",3,0.0,Cubic,225,Fm-3m,0.0,True,True
mp-867751,Ca2AgSn,"Ag, Ca, Sn",3,0.0,Cubic,225,Fm-3m,0.0,True,True
mp-1193241,Hf6Al16Pd7,"Al, Hf, Pd",3,0.0,Cubic,225,Fm-3m,0.0,False,True
mp-867748,ScSnRu2,"Ru, Sc, Sn",3,0.0,Cubic,225,Fm-3m,0.0,True,True
mp-865533,Ti2ReOs,"Os, Re, Ti",3,0.0,Cubic,225,Fm-3m,0.0,True,True
mp-979713,YHgPd2,"Hg, Pd, Y",3,0.01518651833333351,Cubic,225,Fm-3m,0.0,True,True
mp-977454,HgPd2Au,"Au, Hg, Pd",3,0.0,Cubic,225,Fm-3m,0.0,True,True
mp-867273,Be2CuIr,"Be, Cu, Ir",3,0.0,Cubic,225,Fm-3m,0.0,True,True
mp-1185755,Mg2CdHg,"Cd, Hg, Mg",3,0.023827070555555663,Cubic,225,Fm-3m,0.0,True,True
mp-972882,Sc2CdAg,"Ag, Cd, Sc",3,0.010521727500002243,Cubic,225,Fm-3m,0.0,True,True
mp-867260,CdAgPd2,"Ag, Cd, Pd",3,0.0,Cubic,225,Fm-3m,0.0,True,True
mp-977534,ZrNbTc2,"Nb, Tc, Zr",3,0.0,Cubic,225,Fm-3m,0.0,True,True
mp-866170,TiInRh2,"In, Rh, Ti",3,0.0,Cubic,225,Fm-3m,0.0,True,True
mp-1185363,LiMgHg2,"Hg, Li, Mg",3,0.0,Cubic,225,Fm-3m,0.0,True,True
mp-1187194,Ta2TiRe,"Re, Ta, Ti",3,0.012402765277784056,Cubic,225,Fm-3m,0.0,True,True
mp-21171,MnGaCo2,"Co, Ga, Mn",3,0.0,Cubic,225,Fm-3m,0.0,False,True
mp-19946,YInCu2,"Cu, In, Y",3,0.024965638055558514,Cubic,225,Fm-3m,0.0,False,True
mp-861501,AgHgPd2,"Ag, Hg, Pd",3,0.0,Cubic,225,Fm-3m,0.0,True,True
mp-861875,LiHf2Re,"Hf, Li, Re",3,0.0,Cubic,225,Fm-3m,0.0,True,True
mp-1193118,Ti6Al16Ru7,"Al, Ru, Ti",3,0.08144036114942388,Cubic,225,Fm-3m,0.0,False,True
mp-1186122,NaCd2Rh,"Cd, Na, Rh",3,0.0,Cubic,225,Fm-3m,0.0,True,True
mp-1183571,CaYPt2,"Ca, Pt, Y",3,0.020108794166660005,Cubic,225,Fm-3m,0.0,True,True
mp-865898,TiZnCo2,"Co, Ti, Zn",3,0.0,Cubic,225,Fm-3m,0.0,True,True
mp-973153,ScAlPt2,"Al, Pt, Sc",3,0.019959054374998786,Cubic,225,Fm-3m,0.0,True,True
mp-975609,Li2TlPb,"Li, Pb, Tl",3,9.979750000077559e-05,Cubic,225,Fm-3m,0.0,True,True
mp-979288,Ta2NbRh,"Nb, Rh, Ta",3,0.0,Cubic,225,Fm-3m,0.0,True,True
mp-1186937,Sc2CdHg,"Cd, Hg, Sc",3,0.0,Cubic,225,Fm-3m,0.0,True,True
mp-864980,MnAlRu2,"Al, Mn, Ru",3,0.0,Cubic,225,Fm-3m,0.0,True,True
mp-865186,MgGaIr2,"Ga, Ir, Mg",3,0.0,Cubic,225,Fm-3m,0.0,True,True
mp-1183586,CaInPd2,"Ca, In, Pd",3,0.029436112578125062,Cubic,225,Fm-3m,0.0,True,True
mp-864921,MgZrIr2,"Ir, Mg, Zr",3,0.0,Cubic,225,Fm-3m,0.0,True,True
mp-1186953,Sc2ZnAg,"Ag, Sc, Zn",3,0.01248858499999983,Cubic,225,Fm-3m,0.0,True,True
mp-865600,Y2IrPd,"Ir, Pd, Y",3,0.0,Cubic,225,Fm-3m,0.0,True,True
mp-862711,Sc2CdIn,"Cd, In, Sc",3,0.0,Cubic,225,Fm-3m,0.0,True,True
mp-972323,TaNbTc2,"Nb, Ta, Tc",3,0.0,Cubic,225,Fm-3m,0.0,True,True
mp-977435,ZrAlRh2,"Al, Rh, Zr",3,0.0,Cubic,225,Fm-3m,0.0,True,True
mp-865874,Li2AgHg,"Ag, Hg, Li",3,0.0,Cubic,225,Fm-3m,0.0,True,True
mp-862287,BeAlRh2,"Al, Be, Rh",3,0.0,Cubic,225,Fm-3m,0.0,True,True
mp-1187716,Y2ZnCu,"Cu, Y, Zn",3,0.02206997750000017,Cubic,225,Fm-3m,0.0,True,True
mp-867319,Al2CoIr,"Al, Co, Ir",3,0.0,Cubic,225,Fm-3m,0.0,True,True
mp-864807,HfZnNi2,"Hf, Ni, Zn",3,0.0,Cubic,225,Fm-3m,0.0,True,True
mp-862563,Sc2BeTc,"Be, Sc, Tc",3,0.04061840231250091,Cubic,225,Fm-3m,0.0,True,True
mp-10893,MnAlPt2,"Al, Mn, Pt",3,0.006286891875000755,Cubic,225,Fm-3m,0.0,False,True
mp-22463,TiInNi2,"In, Ni, Ti",3,0.03213600499999991,Cubic,225,Fm-3m,0.0,False,True
mp-867922,ScAlRh2,"Al, Rh, Sc",3,0.0,Cubic,225,Fm-3m,0.0,True,True
mp-1185965,MgSc2Ga,"Ga, Mg, Sc",3,0.026163547812499743,Cubic,225,Fm-3m,0.0,True,True
mp-1183386,BaSrTl2,"Ba, Sr, Tl",3,0.0,Cubic,225,Fm-3m,0.0,True,True
mp-865591,Ti2NiMo,"Mo, Ni, Ti",3,0.0,Cubic,225,Fm-3m,0.0,True,True
mp-1193078,Hf6Ga16Ni7,"Ga, Hf, Ni",3,0.038221021034485325,Cubic,225,Fm-3m,0.0,False,True
mp-861958,Ti2MnBe,"Be, Mn, Ti",3,0.0,Cubic,225,Fm-3m,0.0,True,True
mp-979751,TaTiFe2,"Fe, Ta, Ti",3,0.018464070384615283,Cubic,225,Fm-3m,0.0,True,True
mp-1185861,MgGaPt2,"Ga, Mg, Pt",3,0.0,Cubic,225,Fm-3m,0.0,True,True
mp-1187209,Ta2TiW,"Ta, Ti, W",3,0.025902112083336704,Cubic,225,Fm-3m,0.0,True,True
mp-1185892,MgMnPd2,"Mg, Mn, Pd",3,0.0,Cubic,225,Fm-3m,0.0,True,True
mp-1184619,Hf2ReRu,"Hf, Re, Ru",3,0.03282316259999973,Cubic,225,Fm-3m,0.0,True,True
mp-862654,LaGaAu2,"Au, Ga, La",3,0.04985631893633524,Cubic,225,Fm-3m,0.0,True,True
mp-569823,YInAg2,"Ag, In, Y",3,0.0,Cubic,225,Fm-3m,0.0,False,True
mp-865504,YAlAg2,"Ag, Al, Y",3,0.01581550334820392,Cubic,225,Fm-3m,0.0,True,True
mp-866010,CaCdAu2,"Au, Ca, Cd",3,0.0,Cubic,225,Fm-3m,0.0,True,True
mp-865869,Be2CuPt,"Be, Cu, Pt",3,0.0,Cubic,225,Fm-3m,0.0,True,True
mp-867187,ScInIr2,"In, Ir, Sc",3,0.0,Cubic,225,Fm-3m,0.0,True,True
mp-1187738,VSnRu2,"Ru, Sn, V",3,0.0,Cubic,225,Fm-3m,0.0,True,True
mp-862367,Sc2NiRu,"Ni, Ru, Sc",3,0.0,Cubic,225,Fm-3m,0.0,True,True
mp-1185884,MgHgPd2,"Hg, Mg, Pd",3,0.0,Cubic,225,Fm-3m,0.0,True,True
mp-30347,ScInAg2,"Ag, In, Sc",3,0.0,Cubic,225,Fm-3m,0.0,False,True
mp-1185028,Li2CaAl,"Al, Ca, Li",3,0.019565215833333482,Cubic,225,Fm-3m,0.0,True,True
mp-866218,Ti2MnRh,"Mn, Rh, Ti",3,0.0,Cubic,225,Fm-3m,0.0,True,True
mp-1184057,CuSnPd2,"Cu, Pd, Sn",3,0.00840952187499866,Cubic,225,Fm-3m,0.0,True,True
mp-861953,AlFeRh2,"Al, Fe, Rh",3,0.0,Cubic,225,Fm-3m,0.0,True,True
mp-4652,MnRh2Pb,"Mn, Pb, Rh",3,0.023400835000000342,Cubic,225,Fm-3m,0.0,False,True
mp-861662,CaZrRh2,"Ca, Rh, Zr",3,0.04841057997684928,Cubic,225,Fm-3m,0.0,True,True
mp-11537,NbAlRu2,"Al, Nb, Ru",3,0.0,Cubic,225,Fm-3m,0.0,False,True
mp-866114,HfTc2W,"Hf, Tc, W",3,0.0,Cubic,225,Fm-3m,0.0,True,True
mp-862694,Al2IrRh,"Al, Ir, Rh",3,0.0,Cubic,225,Fm-3m,0.0,True,True
mp-865577,Li2CdAu,"Au, Cd, Li",3,0.0,Cubic,225,Fm-3m,0.0,True,True
mp-865803,Ti2MoPt,"Mo, Pt, Ti",3,0.0,Cubic,225,Fm-3m,0.0,True,True
mp-1183634,CdAgAu2,"Ag, Au, Cd",3,0.004966936435195635,Cubic,225,Fm-3m,0.0,True,True
mp-1187186,SrLaHg2,"Hg, La, Sr",3,0.0,Cubic,225,Fm-3m,0.0,True,True
mp-1214229,Be15(Nb3Ni4)2,"Be, Nb, Ni",3,0.0,Cubic,225,Fm-3m,0.0,True,True
mp-1228036,Ba4GaSn3,"Ba, Ga, Sn",3,0.01922657968750041,Orthorhombic,25,Pmm2,0.0,True,True
mp-1220426,NbNi6Mo,"Mo, Nb, Ni",3,0.0,Orthorhombic,25,Pmm2,0.0,True,True
mp-1223225,La2Al3Sn,"Al, La, Sn",3,0.009637529861109329,Orthorhombic,25,Pmm2,0.0,True,True
mp-1217923,TaNi6Mo,"Mo, Ni, Ta",3,0.0,Orthorhombic,25,Pmm2,0.0,True,True
mp-1215804,Zn(InAu4)3,"Au, In, Zn",3,0.007415753125002311,Orthorhombic,25,Pmm2,0.0,True,True
mp-1219423,Sc2Ga3Cu,"Cu, Ga, Sc",3,0.0,Orthorhombic,25,Pmm2,0.0,True,True
mp-1223411,La4Ni3Sn8,"La, Ni, Sn",3,0.007899338388893895,Orthorhombic,25,Pmm2,0.0,True,True
mp-1224155,In3SnAu12,"Au, In, Sn",3,0.00980057718749805,Orthorhombic,25,Pmm2,0.0,True,True
mp-1220433,Nb4CoPt3,"Co, Nb, Pt",3,0.05584733941666542,Orthorhombic,25,Pmm2,0.0,True,True
mp-1228314,Ba3ZnHg10,"Ba, Hg, Zn",3,0.018773877390112048,Orthorhombic,25,Pmm2,0.0,True,True
mp-1227450,Bi3Pd12Pb,"Bi, Pb, Pd",3,0.015762574531251516,Orthorhombic,25,Pmm2,0.0,True,True
mp-1218103,Ta4(CuNi3)3,"Cu, Ni, Ta",3,0.026144479500000983,Orthorhombic,25,Pmm2,0.0,True,True
mp-1223891,In3SnAu4,"Au, In, Sn",3,0.0,Orthorhombic,25,Pmm2,0.0,True,True
mp-1218380,SrCa3Ag4,"Ag, Ca, Sr",3,0.014780863593749416,Orthorhombic,25,Pmm2,0.0,True,True
mp-1223749,InNi2Sn,"In, Ni, Sn",3,0.0069619088541665874,Orthorhombic,25,Pmm2,0.0,True,True
mp-1217130,Ti2CuNi,"Cu, Ni, Ti",3,0.05710765999999978,Orthorhombic,25,Pmm2,0.0,True,True
mp-1228128,Ba3SrSn12,"Ba, Sn, Sr",3,0.02163531531250129,Orthorhombic,25,Pmm2,0.0,True,True
mp-1227571,Ca4GaSn3,"Ca, Ga, Sn",3,0.007253174630680093,Orthorhombic,25,Pmm2,0.0,True,True
mp-1227017,Ca4ZnAg3,"Ag, Ca, Zn",3,0.005722444843749841,Orthorhombic,25,Pmm2,0.0,True,True
mp-1223291,La2Cu3Ni,"Cu, La, Ni",3,0.004117646388888119,Orthorhombic,25,Pmm2,0.0,True,True
mp-1216215,Y4NiSn8,"Ni, Sn, Y",3,0.02337091762820709,Orthorhombic,25,Pmm2,0.0,True,True
mp-1217097,Ti2NiPd,"Ni, Pd, Ti",3,0.054076739374997906,Orthorhombic,25,Pmm2,0.0,True,True
mp-1216173,Y2In3Cu,"Cu, In, Y",3,0.04619207513888668,Orthorhombic,25,Pmm2,0.0,True,True
mp-1218328,Sr4GaSn3,"Ga, Sn, Sr",3,0.009047041093751318,Orthorhombic,25,Pmm2,0.0,True,True
mp-1217370,Ti(NbNi4)3,"Nb, Ni, Ti",3,0.016667490781251182,Orthorhombic,25,Pmm2,0.0,True,True
mp-1195666,La(Al10V)2,"Al, La, V",3,0.0,Cubic,227,Fd-3m,0.0,False,True
mp-570883,Ca21(Zn18Ni)2,"Ca, Ni, Zn",3,0.007699869632767253,Cubic,227,Fd-3m,0.0,False,True
mp-1200087,La(TiAl10)2,"Al, La, Ti",3,0.0,Cubic,227,Fd-3m,0.0,False,True
mp-1195833,Y(Cd10Ni)2,"Cd, Ni, Y",3,0.009773773709770284,Cubic,227,Fd-3m,0.0,False,True
mp-1191806,Mg3TiNi2,"Mg, Ni, Ti",3,0.0,Cubic,227,Fd-3m,0.0,False,True
mp-1204650,Y(Al10Cr)2,"Al, Cr, Y",3,0.013621902686328013,Cubic,227,Fd-3m,0.0,False,True
mp-1195710,Zr(Zn10Cu)2,"Cu, Zn, Zr",3,0.0,Cubic,227,Fd-3m,0.0,False,True
mp-1205144,Mg3(Al9W)2,"Al, Mg, W",3,0.0,Cubic,227,Fd-3m,0.026500000000000412,False,False
mp-1198942,Mg3(TaAl9)2,"Al, Mg, Ta",3,0.0,Cubic,227,Fd-3m,0.0,False,True
mp-1191450,Hf3AlAu2,"Al, Au, Hf",3,0.08421179273148738,Cubic,227,Fd-3m,0.0,False,True
mp-1200279,Mg11(Al2Cu)6,"Al, Cu, Mg",3,0.020496077413793223,Cubic,227,Fd-3m,0.0,False,True
mp-684027,Mg3(MnAl9)2,"Al, Mg, Mn",3,0.010448423913041793,Cubic,227,Fd-3m,0.0,False,True
mp-1191176,Zr3AlAu2,"Al, Au, Zr",3,0.02425866250000297,Cubic,227,Fd-3m,0.0,False,True
mp-3778,Mg3(Al9Cr)2,"Al, Cr, Mg",3,0.0,Cubic,227,Fd-3m,0.0,False,True
mp-542680,Na3In2Au,"Au, In, Na",3,0.0,Cubic,227,Fd-3m,0.0,False,True
mp-640442,Na17In12Ga29,"Ga, In, Na",3,0.011605136969496055,Cubic,227,Fd-3m,0.0,False,True
mp-1204376,La(Cd10Ni)2,"Cd, La, Ni",3,0.004097867869564897,Cubic,227,Fd-3m,0.0,False,True
mp-1191089,Mg3MnNi2,"Mg, Mn, Ni",3,0.00023017823834692308,Cubic,227,Fd-3m,0.0,False,True
mp-684031,Mg3(TiAl9)2,"Al, Mg, Ti",3,0.0,Cubic,227,Fd-3m,0.0,False,True
mp-1195250,Zr(Zn10Co)2,"Co, Zn, Zr",3,0.0,Cubic,227,Fd-3m,0.0,False,True
mp-1201475,Mg3(Al9Mo)2,"Al, Mg, Mo",3,0.0,Cubic,227,Fd-3m,0.0,False,True
mp-1201511,Mg3(Al9V)2,"Al, Mg, V",3,0.0,Cubic,227,Fd-3m,0.0,False,True
mp-640315,Y(Zn10Ru)2,"Ru, Y, Zn",3,0.0,Cubic,227,Fd-3m,0.0,False,True
mp-1196837,Ca(Al10Cr)2,"Al, Ca, Cr",3,0.005283065605587112,Cubic,227,Fd-3m,0.0,False,True
mp-1195553,Zr(Zn10Fe)2,"Fe, Zn, Zr",3,0.0,Cubic,227,Fd-3m,0.0,False,True
mp-1192282,Zr3ZnCu2,"Cu, Zn, Zr",3,0.039722273237179806,Cubic,227,Fd-3m,0.0,False,True
mp-1195444,Zr(Zn10Ni)2,"Ni, Zn, Zr",3,0.0,Cubic,227,Fd-3m,0.0,False,True
mp-542681,Na3In2Ag,"Ag, In, Na",3,0.0,Cubic,227,Fd-3m,0.0,False,True
mp-1200867,La(Al10Cr)2,"Al, Cr, La",3,0.0,Cubic,227,Fd-3m,0.0,False,True
mp-1216144,Y6CoNi,"Co, Ni, Y",3,0.01071996906250039,Orthorhombic,26,Pmc2_1,0.0,True,True
mp-1222164,Mg4HgAu,"Au, Hg, Mg",3,0.006108795925925836,Orthorhombic,26,Pmc2_1,0.0,True,True
mp-1226984,La10Ga3Co7,"Co, Ga, La",3,0.0,Orthorhombic,26,Pmc2_1,0.0,True,True
mp-1218336,SrCaZn2,"Ca, Sr, Zn",3,0.005259109375000293,Orthorhombic,26,Pmc2_1,0.0,True,True
mp-1217060,Y10Ga3Co7,"Co, Ga, Y",3,0.0,Orthorhombic,26,Pmc2_1,0.0,True,True
mp-1220131,NiBi6Rh,"Bi, Ni, Rh",3,0.010188662721357211,Orthorhombic,26,Pmc2_1,0.0,True,True
mp-675690,Ba2PtAu,"Au, Ba, Pt",3,0.002917088750000296,Orthorhombic,26,Pmc2_1,0.0,True,True
mp-1222588,Mg8Ni3Pd,"Mg, Ni, Pd",3,0.0031184607638898854,Monoclinic,3,P2,0.0,True,True
mp-1216267,Y3(FeRu2)2,"Fe, Ru, Y",3,0.0,Triclinic,2,P-1,0.0,True,True
mp-1215874,Zr3(V2Fe)2,"Fe, V, Zr",3,0.0,Triclinic,2,P-1,0.0,True,True
mp-581533,Cs7(In2Bi3)2,"Bi, Cs, In",3,0.0,Triclinic,2,P-1,0.3083,False,False
mp-1222214,Mg3(AlCu2)2,"Al, Cu, Mg",3,0.003828677222222243,Triclinic,2,P-1,0.0,True,True
mp-1216185,Y3(AlFe2)2,"Al, Fe, Y",3,0.015019371452989816,Triclinic,2,P-1,0.0,True,True
mp-1216016,Zr3(VNi2)2,"Ni, V, Zr",3,0.07675690287037007,Triclinic,2,P-1,0.0,True,True
mp-1219441,Sc3(MnNi2)2,"Mn, Ni, Sc",3,0.016272747681991717,Triclinic,2,P-1,0.0,True,True
mp-607525,Ba11(Cd4Bi7)2,"Ba, Bi, Cd",3,0.0,Triclinic,2,P-1,0.0,True,True
mp-680539,K11(In2Bi3)3,"Bi, In, K",3,0.0,Triclinic,2,P-1,0.03130000000000033,False,False
mp-680436,Rb2LiSn4,"Li, Rb, Sn",3,0.0,Triclinic,2,P-1,0.9014000000000002,False,False
mp-1215885,Zr3(MnNi2)2,"Mn, Ni, Zr",3,0.043780823888889486,Triclinic,2,P-1,0.0,True,True
mp-1224216,HfZrNb2,"Hf, Nb, Zr",3,0.08511833000000024,Orthorhombic,35,Cmm2,0.0,True,True
mp-1215519,ZnCdAg2,"Ag, Cd, Zn",3,0.09264560207236983,Orthorhombic,35,Cmm2,0.0,True,True
mp-1216349,VCrFe2,"Cr, Fe, V",3,0.08149657250000075,Orthorhombic,35,Cmm2,0.0,True,True
mp-568476,BiPd2Pb,"Bi, Pb, Pd",3,0.00023625812499972199,Orthorhombic,36,Cmc2_1,0.0,False,True
mp-30864,Y2Sn5Rh3,"Rh, Sn, Y",3,0.0,Orthorhombic,36,Cmc2_1,0.0,False,True
mp-684013,Ba2In13Ir4,"Ba, In, Ir",3,0.0,Orthorhombic,36,Cmc2_1,0.0,False,True
mp-1219835,Rb4Sn21Hg2,"Hg, Rb, Sn",3,0.0,Orthorhombic,40,Ama2,0.21260000000000012,True,False
mp-1226308,Cs4Sn21Hg2,"Cs, Hg, Sn",3,0.0,Orthorhombic,40,Ama2,0.24110000000000031,True,False
mp-1224491,K4Sn21Hg2,"Hg, K, Sn",3,0.0,Orthorhombic,40,Ama2,0.19419999999999948,True,False
mp-1224111,K4Zn2Sn21,"K, Sn, Zn",3,0.0,Orthorhombic,40,Ama2,0.42079999999999984,True,False
mp-1217902,TaNbMo,"Mo, Nb, Ta",3,0.009715673333325014,Orthorhombic,42,Fmm2,0.0,True,True
mp-1217897,TaMoW,"Mo, Ta, W",3,0.022693173333337313,Orthorhombic,42,Fmm2,0.0,True,True
mp-1217901,TaNbW,"Nb, Ta, W",3,0.020959626666659403,Orthorhombic,42,Fmm2,0.0,True,True
mp-1217987,Ta3Co2Mo,"Co, Mo, Ta",3,0.015449960888888725,Orthorhombic,42,Fmm2,0.0,True,True
mp-1216241,VReMo,"Mo, Re, V",3,0.062132650416668156,Orthorhombic,42,Fmm2,0.0,True,True
mp-1224087,La3InPb4,"In, La, Pb",3,0.0,Orthorhombic,42,Fmm2,0.0,True,True
mp-1216348,VCrMo,"Cr, Mo, V",3,0.06364379666666764,Orthorhombic,42,Fmm2,0.0,True,True
mp-1220369,NbVRe,"Nb, Re, V",3,0.04236354222222616,Orthorhombic,42,Fmm2,0.0,True,True
mp-1217905,TaNbV,"Nb, Ta, V",3,0.09800816333333628,Orthorhombic,42,Fmm2,0.0,True,True
mp-1220357,NbReMo,"Mo, Nb, Re",3,0.03231535333333113,Orthorhombic,42,Fmm2,0.0,True,True
mp-1220335,NbMoW,"Mo, Nb, W",3,0.005739143333322261,Orthorhombic,42,Fmm2,0.0,True,True
mp-1223198,LaGa3Co10,"Co, Ga, La",3,0.023611921071426067,Orthorhombic,42,Fmm2,0.0,True,True
mp-1219021,Sn7Ir2Os,"Ir, Os, Sn",3,0.0016294256249977934,Orthorhombic,42,Fmm2,0.0,True,True
mp-1023483,Mg6AlZn,"Al, Mg, Zn",3,0.06280160333541684,Orthorhombic,38,Amm2,0.0,True,True
mp-1219356,ScAlCu,"Al, Cu, Sc",3,0.010795901666666552,Orthorhombic,38,Amm2,0.0,True,True
mp-1028173,CaMg14Zn,"Ca, Mg, Zn",3,0.06342024031249993,Orthorhombic,38,Amm2,0.0,True,True
mp-1026898,Mg14CuBi,"Bi, Cu, Mg",3,0.07678096999999973,Orthorhombic,38,Amm2,0.0,True,True
mp-1022594,Mg6ZnGa,"Ga, Mg, Zn",3,0.06568019307500039,Orthorhombic,38,Amm2,0.0,True,True
mp-1017037,Mg6CdGa,"Cd, Ga, Mg",3,0.05215514999999993,Orthorhombic,38,Amm2,0.0,True,True
mp-1021414,NaMg6Sn,"Mg, Na, Sn",3,0.09156217374999986,Orthorhombic,38,Amm2,0.0,True,True
mp-1028014,Mg14ZnSn,"Mg, Sn, Zn",3,0.04696377872500013,Orthorhombic,38,Amm2,0.0,True,True
mp-1017184,Mg6CdBi,"Bi, Cd, Mg",3,0.06791711281249913,Orthorhombic,38,Amm2,0.0,True,True
mp-1227155,CaMgZn,"Ca, Mg, Zn",3,0.030888439166665504,Orthorhombic,38,Amm2,0.0,True,True
mp-1215568,Zr5Ir2Os,"Ir, Os, Zr",3,0.028781046302079005,Orthorhombic,38,Amm2,0.0,True,True
mp-1028253,Mg14AlCu,"Al, Cu, Mg",3,0.07620119322916685,Orthorhombic,38,Amm2,0.0,True,True