material_id,formula,elements,num_elements,energy_above_hull,crystal_system,spacegroup_number,spacegroup_symbol,band_gap,theoretical,is_metal
mp-1227279,Be4AlNi,"Al, Be, Ni",3,0.0,Cubic,216,F-43m,0.0,True,True
mp-1227272,Be4AlFe,"Al, Be, Fe",3,0.0,Cubic,216,F-43m,0.0,True,True
mp-1222600,Li2ZnSn,"Li, Sn, Zn",3,0.0,Cubic,216,F-43m,0.0,True,True
mp-30820,Li2AlRh,"Al, Li, Rh",3,0.05371851833333352,Cubic,216,F-43m,0.0,False,True
mp-3726,Li2GaPt,"Ga, Li, Pt",3,0.0,Cubic,216,F-43m,0.0,False,True
mp-1221620,MnAlFe2,"Al, Fe, Mn",3,0.056904699999999586,Cubic,216,F-43m,0.0,True,True
mp-1071645,YInCu4,"Cu, In, Y",3,0.0,Cubic,216,F-43m,0.0,False,True
mp-1222695,LaYMg4,"La, Mg, Y",3,0.022448269999999937,Cubic,216,F-43m,0.0,True,True
mp-568466,LiInSn,"In, Li, Sn",3,0.03752031777777898,Cubic,216,F-43m,0.0,False,True
mp-1213974,CaBiAu4,"Au, Bi, Ca",3,0.0,Cubic,216,F-43m,0.0,True,True
mp-570213,LiMgBi,"Bi, Li, Mg",3,0.0,Cubic,216,F-43m,0.35870000000000024,False,False
mp-1224275,HfTaV4,"Hf, Ta, V",3,0.027264051666666234,Cubic,216,F-43m,0.0,True,True
mp-1077397,ScCdNi4,"Cd, Ni, Sc",3,0.0,Cubic,216,F-43m,0.0,False,True
mp-605878,La4MgRu,"La, Mg, Ru",3,0.0,Cubic,216,F-43m,0.0,False,True
mp-1207825,Y4MgNi,"Mg, Ni, Y",3,0.0,Cubic,216,F-43m,0.030100000000000016,True,False
mp-31441,Li2GaIr,"Ga, Ir, Li",3,0.0,Cubic,216,F-43m,0.0,False,True
mp-1206679,YBiPt,"Bi, Pt, Y",3,0.0,Cubic,216,F-43m,0.0,True,True
mp-1207794,Y4CdNi,"Cd, Ni, Y",3,0.0,Cubic,216,F-43m,0.013399999999999856,True,False
mp-1222613,Li2MgTl,"Li, Mg, Tl",3,0.0,Cubic,216,F-43m,0.0,True,True
mp-1224259,HfTiMo4,"Hf, Mo, Ti",3,0.07222330037037139,Cubic,216,F-43m,0.0,True,True
mp-1227275,Be4AlCu,"Al, Be, Cu",3,0.010284149166666978,Cubic,216,F-43m,0.0,True,True
mp-1222280,LiInSn,"In, Li, Sn",3,0.008003621111112746,Cubic,216,F-43m,0.20199999999999996,True,False
mp-1215186,ZrTiCo4,"Co, Ti, Zr",3,0.06405080196078217,Cubic,216,F-43m,0.0,True,True
mp-1222650,Li2MgAu,"Au, Li, Mg",3,0.0029623250000012646,Cubic,216,F-43m,0.0,True,True
mp-1218345,SrCaAl4,"Al, Ca, Sr",3,0.016013822499997943,Cubic,216,F-43m,0.0,True,True
mp-1207807,Y4MgRh,"Mg, Rh, Y",3,0.0,Cubic,216,F-43m,0.0,True,True
mp-1222607,Li2SnPt,"Li, Pt, Sn",3,0.0,Cubic,216,F-43m,0.0,True,True
mp-1222647,Li2MgGa,"Ga, Li, Mg",3,0.0,Cubic,216,F-43m,0.0,True,True
mp-13079,Mn2AlCo,"Al, Co, Mn",3,0.02683310853448262,Cubic,216,F-43m,0.0,False,True
mp-1207818,Y4CdPd,"Cd, Pd, Y",3,0.0,Cubic,216,F-43m,0.0,True,True
mp-961687,ZrSnPd,"Pd, Sn, Zr",3,0.0,Cubic,216,F-43m,0.48160000000000025,True,False
mp-1207813,Y4CdPt,"Cd, Pt, Y",3,0.0,Cubic,216,F-43m,0.0,True,True
mp-1227048,CaLaAl4,"Al, Ca, La",3,0.02261050500000117,Cubic,216,F-43m,0.0,True,True
mp-30403,Li2PbAu,"Au, Li, Pb",3,0.0042674800000011,Cubic,216,F-43m,0.0,False,True
mp-1224085,HfZrV4,"Hf, V, Zr",3,0.04102840833333232,Cubic,216,F-43m,0.0,True,True
mp-961693,ZrInAu,"Au, In, Zr",3,0.0,Cubic,216,F-43m,0.44120000000000026,True,False
mp-924129,ZrNiSn,"Ni, Sn, Zr",3,0.0,Cubic,216,F-43m,0.49540000000000006,True,False
mp-1207094,MgCuPb,"Cu, Mg, Pb",3,0.06587151333333319,Cubic,216,F-43m,0.0,True,True
mp-567076,Li2BiAu,"Au, Bi, Li",3,0.018676827500000215,Cubic,216,F-43m,0.0,False,True
mp-570769,CaInCu4,"Ca, Cu, In",3,0.02046913583333243,Cubic,216,F-43m,0.0,False,True
mp-1211476,La4MgRh,"La, Mg, Rh",3,0.0,Cubic,216,F-43m,0.0,True,True
mp-1222604,Li2TlCd,"Cd, Li, Tl",3,0.0017011562500002242,Cubic,216,F-43m,0.0,True,True
mp-1222012,MgBe4Cu,"Be, Cu, Mg",3,0.05153199750000059,Cubic,216,F-43m,0.0,True,True
mp-1215942,YScFe4,"Fe, Sc, Y",3,0.0181996024999993,Cubic,216,F-43m,0.0,True,True
mp-1221618,MnBe4Al,"Al, Be, Mn",3,0.0,Cubic,216,F-43m,0.0,True,True
mp-30587,MgInCu4,"Cu, In, Mg",3,0.0,Cubic,216,F-43m,0.0,False,True
mp-961682,TiSnPd,"Pd, Sn, Ti",3,0.0,Cubic,216,F-43m,0.48240000000000016,True,False
mp-1222668,Li2AlGa,"Al, Ga, Li",3,0.0,Cubic,216,F-43m,0.0,True,True
mp-1211864,La4CdNi,"Cd, La, Ni",3,0.0,Cubic,216,F-43m,0.0,True,True
mp-1222610,Li2MgZn,"Li, Mg, Zn",3,0.01127658124999975,Cubic,216,F-43m,0.0,True,True
mp-30816,Li2AlPd,"Al, Li, Pd",3,0.0,Cubic,216,F-43m,0.0,False,True
mp-1222653,Li2MgAg,"Ag, Li, Mg",3,0.002156627499999786,Cubic,216,F-43m,0.0,True,True
mp-30459,ScNiBi,"Bi, Ni, Sc",3,0.0,Cubic,216,F-43m,0.1869000000000005,False,False
mp-1215207,ZrScFe4,"Fe, Sc, Zr",3,0.0,Cubic,216,F-43m,0.0,True,True
mp-1077796,LaInPt4,"In, La, Pt",3,0.0,Cubic,216,F-43m,0.0,False,True
mp-1207810,Y4MgPt,"Mg, Pt, Y",3,0.0,Cubic,216,F-43m,0.014600000000000168,True,False
mp-2988,Li2GaRh,"Ga, Li, Rh",3,0.0,Cubic,216,F-43m,0.0,False,True
mp-13434,CaMgNi4,"Ca, Mg, Ni",3,0.006002521041661879,Cubic,216,F-43m,0.0,False,True
mp-1222683,LaYAl4,"Al, La, Y",3,0.022642142500000517,Cubic,216,F-43m,0.0,True,True
mp-1217889,TaTiBe4,"Be, Ta, Ti",3,0.04803626321428567,Cubic,216,F-43m,0.0,True,True
mp-1207822,Y4MgIr,"Ir, Mg, Y",3,0.0,Cubic,216,F-43m,0.0,True,True
mp-1217247,Ti4CoNi,"Co, Ni, Ti",3,0.0,Cubic,216,F-43m,0.0,True,True
mp-1224067,HfZrW4,"Hf, W, Zr",3,3.9947499992365465e-05,Cubic,216,F-43m,0.0,True,True
mp-11869,HfSnPd,"Hf, Pd, Sn",3,0.0,Cubic,216,F-43m,0.033800000000000274,False,False
mp-1215709,YZrFe4,"Fe, Y, Zr",3,0.011133083333335847,Cubic,216,F-43m,0.0,True,True
mp-1207143,LaCd2Cu,"Cd, Cu, La",3,0.07696694000000193,Cubic,216,F-43m,0.0,True,True
mp-1215224,ZrNbFe4,"Fe, Nb, Zr",3,0.01997141499999877,Cubic,216,F-43m,0.0,True,True
mp-31452,ZrNiBi,"Bi, Ni, Zr",3,0.07089598224073956,Cubic,216,F-43m,0.0,False,True
mp-30392,Li2InAu,"Au, In, Li",3,0.0,Cubic,216,F-43m,0.0,False,True
mp-1217277,Ti4FeNi,"Fe, Ni, Ti",3,0.015678900277777963,Cubic,216,F-43m,0.0,True,True
mp-1215214,ZrNbCo4,"Co, Nb, Zr",3,0.027027491277779703,Cubic,216,F-43m,0.0,True,True
mp-1070869,ZrCu4Ag,"Ag, Cu, Zr",3,0.0,Cubic,216,F-43m,0.0,False,True
mp-30460,YNiBi,"Bi, Ni, Y",3,0.0,Cubic,216,F-43m,0.2016,False,False
mp-1222611,Li2TlAg,"Ag, Li, Tl",3,0.0,Cubic,216,F-43m,0.0,True,True
mp-11808,ScNi4Sn,"Ni, Sc, Sn",3,0.0,Cubic,216,F-43m,0.0,False,True
mp-1100408,TaSnRh,"Rh, Sn, Ta",3,0.0,Cubic,216,F-43m,1.0594000000000001,True,False
mp-1207011,ScInNi4,"In, Ni, Sc",3,0.0,Cubic,216,F-43m,0.0,True,True
mp-1222652,Li2MgPb,"Li, Mg, Pb",3,0.0,Cubic,216,F-43m,0.0,True,True
mp-1217010,TiBe4Nb,"Be, Nb, Ti",3,0.037603625972220556,Cubic,216,F-43m,0.0,True,True
mp-568398,CaBiAu,"Au, Bi, Ca",3,0.0,Cubic,216,F-43m,0.0,False,True
mp-570820,La4CdRu,"Cd, La, Ru",3,0.0,Cubic,216,F-43m,0.0,False,True
mp-1222608,Li2SnPd,"Li, Pd, Sn",3,0.0,Cubic,216,F-43m,0.0,True,True
mp-1216666,TiNbCr4,"Cr, Nb, Ti",3,0.09645724055555505,Cubic,216,F-43m,0.0,True,True
mp-30807,ZrNi4Sn,"Ni, Sn, Zr",3,0.03278016317708499,Cubic,216,F-43m,0.0,False,True
mp-569025,Ba19Na29Li13,"Ba, Li, Na",3,0.0019011825744299493,Cubic,216,F-43m,0.009400000000000075,False,False
mp-1211561,La4MgNi,"La, Mg, Ni",3,0.006260068988094503,Cubic,216,F-43m,0.0,True,True
mp-3201,Li2GaPd,"Ga, Li, Pd",3,0.0,Cubic,216,F-43m,0.0,False,True
mp-568156,Y4CdRu,"Cd, Ru, Y",3,0.0,Cubic,216,F-43m,0.0,False,True
mp-569333,Li2AgBi,"Ag, Bi, Li",3,0.005181592083334685,Cubic,216,F-43m,0.0,False,True
mp-961713,ZrSnPt,"Pt, Sn, Zr",3,0.0,Cubic,216,F-43m,0.9627999999999997,True,False
mp-1197200,Zn89(Cr2Au5)2,"Au, Cr, Zn",3,0.006883749902911518,Cubic,216,F-43m,0.019299999999999873,False,False
mp-30349,Li2AgPb,"Ag, Li, Pb",3,0.0,Cubic,216,F-43m,0.0,False,True
mp-1216635,TiSnIr,"Ir, Sn, Ti",3,0.008294697424240383,Cubic,216,F-43m,0.0,True,True
mp-29733,MgNiBi,"Bi, Mg, Ni",3,0.0,Cubic,216,F-43m,0.0,False,True
mp-1215020,Al2(Zn13Pd3)3,"Al, Pd, Zn",3,0.0,Cubic,216,F-43m,0.0,True,True
mp-1206681,ScBiPd,"Bi, Pd, Sc",3,0.0,Cubic,216,F-43m,0.0,True,True
mp-567347,Li2AgSn,"Ag, Li, Sn",3,0.0,Cubic,216,F-43m,0.0,False,True
mp-1207802,Y4CdIr,"Cd, Ir, Y",3,0.0,Cubic,216,F-43m,0.0,True,True
mp-1072944,ScCu4Sn,"Cu, Sc, Sn",3,0.06521864000000122,Cubic,216,F-43m,0.0,False,True
mp-1224188,HfZrFe4,"Fe, Hf, Zr",3,0.0,Cubic,216,F-43m,0.0,True,True
mp-672679,Y4InIr,"In, Ir, Y",3,0.0,Cubic,216,F-43m,0.0,False,True
mp-1189147,Mn3Ga4Ni9,"Ga, Mn, Ni",3,0.018767113124999568,Cubic,221,Pm-3m,0.0,True,True
mp-1104503,YGa3Ru,"Ga, Ru, Y",3,0.0,Cubic,221,Pm-3m,0.0,False,True
mp-571068,K3(Mg10In7)2,"In, K, Mg",3,0.02113862036703118,Cubic,221,Pm-3m,0.0,False,True
mp-1214812,Cs3(Na13In24)2,"Cs, In, Na",3,0.0,Cubic,223,Pm-3n,0.016000000000000014,True,False
mp-4363,Ca3Sn13Rh4,"Ca, Rh, Sn",3,0.0,Cubic,223,Pm-3n,0.0,False,True
mp-672373,La3Co4Sn13,"Co, La, Sn",3,0.0,Cubic,223,Pm-3n,0.0,False,True
mp-1214141,Ca3Sn13Pt4,"Ca, Pt, Sn",3,0.012088611269231109,Cubic,223,Pm-3n,0.0,True,True
mp-1200470,Ca3Co4Sn13,"Ca, Co, Sn",3,0.001964379333332822,Cubic,223,Pm-3n,0.0,False,True
mp-30513,La3Sn13Rh4,"La, Rh, Sn",3,0.0009987026250000142,Cubic,223,Pm-3n,0.0,False,True
mp-1200211,Ca3Sn13Ir4,"Ca, Ir, Sn",3,0.0,Cubic,223,Pm-3n,0.0,False,True
mp-1197480,La3Sn13Ir4,"Ir, La, Sn",3,0.0,Cubic,223,Pm-3n,0.0,False,True
mp-1196992,La3Sn13Ru4,"La, Ru, Sn",3,0.0,Cubic,223,Pm-3n,0.0,False,True
mp-30517,Sr3Sn13Rh4,"Rh, Sn, Sr",3,0.0,Cubic,223,Pm-3n,0.0,False,True
mp-30756,LaSn3Ru,"La, Ru, Sn",3,0.0,Cubic,223,Pm-3n,0.0,False,True
mp-680654,Sr3Rh4Pb13,"Pb, Rh, Sr",3,0.0,Cubic,223,Pm-3n,0.0,False,True
mp-684037,K29NaHg48,"Hg, K, Na",3,0.017018803653840564,Cubic,223,Pm-3n,0.0,False,True
mp-1196422,Sr3Sn13Ir4,"Ir, Sn, Sr",3,0.0,Cubic,223,Pm-3n,0.0,False,True
mp-684127,K3(Na13In24)2,"In, K, Na",3,0.0,Cubic,223,Pm-3n,0.0,False,True
mp-1203228,La3Rh4Pb13,"La, Pb, Rh",3,0.0,Cubic,223,Pm-3n,0.0,False,True
mp-1211830,K4Sn20Hg3,"Hg, K, Sn",3,0.011598736456787329,Cubic,223,Pm-3n,0.0,True,True
mp-1209556,Rb4Sn20Hg3,"Hg, Rb, Sn",3,0.011831627411326817,Cubic,223,Pm-3n,0.0,True,True
mp-13486,LaCoCu12,"Co, Cu, La",3,0.0010392845982156729,Cubic,226,Fm-3c,0.0,False,True
mp-1192952,LaBeCu12,"Be, Cu, La",3,0.0,Cubic,226,Fm-3c,0.0,False,True
mp-1191954,Y3(GaNi3)2,"Ga, Ni, Y",3,0.0,Cubic,229,Im-3m,0.0,False,True
mp-1197580,Li6Ca17Hg9,"Ca, Hg, Li",3,0.0,Cubic,229,Im-3m,0.0,False,True
mp-1192004,La6Zn4Pd13,"La, Pd, Zn",3,0.0,Cubic,229,Im-3m,0.0,False,True
mp-1106026,Y4Ga12Fe,"Fe, Ga, Y",3,0.023280382941176292,Cubic,229,Im-3m,0.0,False,True
mp-4577,Y3(AlNi3)2,"Al, Ni, Y",3,0.0,Cubic,229,Im-3m,0.0,False,True
mp-866669,Sr17(Li2Hg3)3,"Hg, Li, Sr",3,0.0,Cubic,229,Im-3m,0.0,False,True
mp-510548,Y4Ga12Pt,"Ga, Pt, Y",3,0.0,Cubic,229,Im-3m,0.0,False,True
mp-5376,Y4Ga12Pd,"Ga, Pd, Y",3,0.0018575702205883005,Cubic,229,Im-3m,0.0,False,True
mp-570845,Zn(GaNi)3,"Ga, Ni, Zn",3,0.0,Cubic,230,Ia-3d,0.0,False,True
mp-866037,GaNiRh2,"Ga, Ni, Rh",3,0.0,Cubic,225,Fm-3m,0.0,True,True
mp-861619,TiZnPt2,"Pt, Ti, Zn",3,0.018284721666664616,Cubic,225,Fm-3m,0.0,True,True
mp-972935,ScZnNi2,"Ni, Sc, Zn",3,0.006988724136905766,Cubic,225,Fm-3m,0.0,True,True
mp-1185972,Mn2NbGa,"Ga, Mn, Nb",3,0.00868212789062639,Cubic,225,Fm-3m,0.0,True,True
mp-1192673,Zr6Al16Rh7,"Al, Rh, Zr",3,0.0,Cubic,225,Fm-3m,0.0,False,True
mp-865235,Ti6Al16Ni7,"Al, Ni, Ti",3,0.0,Cubic,225,Fm-3m,0.0,False,True
mp-866033,AlZnRh2,"Al, Rh, Zn",3,0.0,Cubic,225,Fm-3m,0.0,True,True
mp-862371,Sc2RuPt,"Pt, Ru, Sc",3,0.0,Cubic,225,Fm-3m,0.0,True,True
mp-865807,Ti2MoIr,"Ir, Mo, Ti",3,0.0,Cubic,225,Fm-3m,0.0,True,True
mp-1186005,MnZnNi2,"Mn, Ni, Zn",3,0.0,Cubic,225,Fm-3m,0.0,True,True
mp-864715,HfInCo2,"Co, Hf, In",3,0.0,Cubic,225,Fm-3m,0.0,True,True
mp-11512,LiAl2Ir,"Al, Ir, Li",3,0.0,Cubic,225,Fm-3m,0.0,False,True
mp-867842,ScInRh2,"In, Rh, Sc",3,0.0,Cubic,225,Fm-3m,0.0,True,True
mp-1187765,Y2AlRu,"Al, Ru, Y",3,0.0921340957142851,Cubic,225,Fm-3m,0.0,True,True
mp-1184757,K2CdAu,"Au, Cd, K",3,0.05577365481770613,Cubic,225,Fm-3m,0.0,True,True
mp-867333,Ba2CdPb,"Ba, Cd, Pb",3,0.0,Cubic,225,Fm-3m,0.0,True,True
mp-1184956,Li2TlHg,"Hg, Li, Tl",3,0.009609435000001554,Cubic,225,Fm-3m,0.0,True,True
mp-865603,Y2IrRh,"Ir, Rh, Y",3,0.0,Cubic,225,Fm-3m,0.0,True,True
mp-1188014,ZrScRu2,"Ru, Sc, Zr",3,0.0,Cubic,225,Fm-3m,0.0,True,True
mp-1186222,NbGaOs2,"Ga, Nb, Os",3,0.0,Cubic,225,Fm-3m,0.0,True,True
mp-865041,HfScRh2,"Hf, Rh, Sc",3,0.0,Cubic,225,Fm-3m,0.0,True,True
mp-1183273,Ba2NaIn,"Ba, In, Na",3,0.018505106905173818,Cubic,225,Fm-3m,0.0,True,True
mp-1185769,Mg2NiIr,"Ir, Mg, Ni",3,0.04735366566063526,Cubic,225,Fm-3m,0.0,True,True
mp-865890,Li2CaIn,"Ca, In, Li",3,0.0,Cubic,225,Fm-3m,0.0,True,True
mp-977361,ZnFeRh2,"Fe, Rh, Zn",3,0.0,Cubic,225,Fm-3m,0.0,True,True
mp-867847,La2ZnRu,"La, Ru, Zn",3,0.05896442714285666,Cubic,225,Fm-3m,0.0,True,True
mp-862673,LiY2Ru,"Li, Ru, Y",3,0.0,Cubic,225,Fm-3m,0.0,True,True
mp-978261,MnBe2Co,"Be, Co, Mn",3,0.004891544008621018,Cubic,225,Fm-3m,0.0,True,True
mp-867146,ScNbRu2,"Nb, Ru, Sc",3,0.0,Cubic,225,Fm-3m,0.0,True,True
mp-865092,MgGaNi2,"Ga, Mg, Ni",3,0.0,Cubic,225,Fm-3m,0.0,True,True
mp-1193532,Ti6Ga16Pt7,"Ga, Pt, Ti",3,0.08236950781609398,Cubic,225,Fm-3m,0.0,False,True
mp-1185432,LiZnCd2,"Cd, Li, Zn",3,0.024179960833329517,Cubic,225,Fm-3m,0.0,True,True
mp-10884,AlFeCo2,"Al, Co, Fe",3,0.0,Cubic,225,Fm-3m,0.0,False,True
mp-867204,LiCd2Ag,"Ag, Cd, Li",3,0.0,Cubic,225,Fm-3m,0.0,True,True
mp-3340,TaAlCo2,"Al, Co, Ta",3,0.0,Cubic,225,Fm-3m,0.0,False,True
mp-1185304,LiAlZn2,"Al, Li, Zn",3,0.0016959008333321535,Cubic,225,Fm-3m,0.0,True,True
mp-862704,ScZn2Pt,"Pt, Sc, Zn",3,0.05077385671875234,Cubic,225,Fm-3m,0.0,True,True
mp-1187464,TiAlIr2,"Al, Ir, Ti",3,0.0005003100000031679,Cubic,225,Fm-3m,0.0,True,True
mp-972925,ScZn2Au,"Au, Sc, Zn",3,0.022992730986842957,Cubic,225,Fm-3m,0.0,True,True
mp-7243,LiSnPd2,"Li, Pd, Sn",3,0.0,Cubic,225,Fm-3m,0.0,False,True
mp-867222,LiCa2Ir,"Ca, Ir, Li",3,0.01924372333333224,Cubic,225,Fm-3m,0.0,True,True
mp-568917,LaInAg2,"Ag, In, La",3,0.0,Cubic,225,Fm-3m,0.0,False,True
mp-1183419,Be2IrRu,"Be, Ir, Ru",3,0.0,Cubic,225,Fm-3m,0.0,True,True
mp-1185306,LiCrRh2,"Cr, Li, Rh",3,0.0,Cubic,225,Fm-3m,0.0,True,True
mp-861918,Sc2TlCd,"Cd, Sc, Tl",3,0.0,Cubic,225,Fm-3m,0.0,True,True
mp-865079,TiZnPd2,"Pd, Ti, Zn",3,0.0,Cubic,225,Fm-3m,0.0,True,True
mp-861978,Hf2ReIr,"Hf, Ir, Re",3,0.0,Cubic,225,Fm-3m,0.0,True,True
mp-1184560,HfZnPd2,"Hf, Pd, Zn",3,0.0,Cubic,225,Fm-3m,0.0,True,True
mp-866296,AlCuPd2,"Al, Cu, Pd",3,0.0,Cubic,225,Fm-3m,0.0,True,True
mp-865124,NaSr2In,"In, Na, Sr",3,0.02359369910370246,Cubic,225,Fm-3m,0.0,True,True
mp-1187125,Sr2TlIn,"In, Sr, Tl",3,0.0032780196874990786,Cubic,225,Fm-3m,0.0,True,True
mp-977564,MgScHg2,"Hg, Mg, Sc",3,0.0,Cubic,225,Fm-3m,0.0,True,True
mp-864969,Mg2PdRh,"Mg, Pd, Rh",3,0.0,Cubic,225,Fm-3m,0.0,True,True
mp-867799,Ca2BiAu,"Au, Bi, Ca",3,0.0,Cubic,225,Fm-3m,0.00020000000000042206,True,False
mp-3623,MnAlCo2,"Al, Co, Mn",3,0.0,Cubic,225,Fm-3m,0.0,False,True
mp-4990,MnSnRh2,"Mn, Rh, Sn",3,0.0,Cubic,225,Fm-3m,0.0,False,True
mp-1188021,ZrGaRh2,"Ga, Rh, Zr",3,0.0,Cubic,225,Fm-3m,0.0,True,True
mp-864623,ZnCuAu2,"Au, Cu, Zn",3,0.0,Cubic,225,Fm-3m,0.0,True,True
mp-865107,NaMgPb2,"Mg, Na, Pb",3,0.0,Cubic,225,Fm-3m,0.0,True,True
mp-865793,LiSc2Rh,"Li, Rh, Sc",3,0.0,Cubic,225,Fm-3m,0.0,True,True
mp-865731,Li2HgPd,"Hg, Li, Pd",3,0.0,Cubic,225,Fm-3m,0.0,True,True
mp-867174,SrLi2Pb,"Li, Pb, Sr",3,0.0,Cubic,225,Fm-3m,0.0,True,True
mp-862336,Sc2IrPd,"Ir, Pd, Sc",3,0.0,Cubic,225,Fm-3m,0.0,True,True
mp-21067,ScInCu2,"Cu, In, Sc",3,0.010323330000009179,Cubic,225,Fm-3m,0.0,False,True
mp-864978,Mg2AgAu,"Ag, Au, Mg",3,0.0,Cubic,225,Fm-3m,0.0,True,True
mp-972879,Sc2RuAu,"Au, Ru, Sc",3,0.0,Cubic,225,Fm-3m,0.0,True,True
mp-864784,LiSnRh2,"Li, Rh, Sn",3,0.0,Cubic,225,Fm-3m,0.0,True,True
mp-979931,YNbRu2,"Nb, Ru, Y",3,0.008713050520832155,Cubic,225,Fm-3m,0.0,True,True
mp-866143,TiBeRh2,"Be, Rh, Ti",3,0.0,Cubic,225,Fm-3m,0.0,True,True
mp-866155,TiAlRu2,"Al, Ru, Ti",3,0.0,Cubic,225,Fm-3m,0.0,True,True
mp-974973,HfZrZn2,"Hf, Zn, Zr",3,0.018419908125000717,Cubic,225,Fm-3m,0.0,True,True
mp-1184104,CuRh2Pb,"Cu, Pb, Rh",3,0.0333484833333344,Cubic,225,Fm-3m,0.0,True,True
mp-1187705,Y2IrAu,"Au, Ir, Y",3,0.02864345249999989,Cubic,225,Fm-3m,0.0,True,True
mp-865537,TiMnCo2,"Co, Mn, Ti",3,0.0,Cubic,225,Fm-3m,0.0,True,True
mp-1186887,RbNa2Bi,"Bi, Na, Rb",3,0.008732930833331487,Cubic,225,Fm-3m,0.0,True,True
mp-1183381,Ba2ZnIn,"Ba, In, Zn",3,0.009561917083334315,Cubic,225,Fm-3m,0.0,True,True
mp-865231,LiScTl2,"Li, Sc, Tl",3,0.0,Cubic,225,Fm-3m,0.0,True,True
mp-978662,Sc6Al16Ir7,"Al, Ir, Sc",3,0.0,Cubic,225,Fm-3m,0.0,False,True
mp-866072,MgTaRh2,"Mg, Rh, Ta",3,0.0,Cubic,225,Fm-3m,0.0,True,True
mp-1184977,Li2AgBi,"Ag, Bi, Li",3,0.009485767083332597,Cubic,225,Fm-3m,0.0,True,True
mp-862795,CaLaAg2,"Ag, Ca, La",3,0.0,Cubic,225,Fm-3m,0.0,True,True
mp-30350,Li2AgSn,"Ag, Li, Sn",3,0.05791287499999953,Cubic,225,Fm-3m,0.0,False,True
mp-865147,Be2CuRu,"Be, Cu, Ru",3,0.0008402499999977664,Cubic,225,Fm-3m,0.0,True,True
mp-862536,La2CuIr,"Cu, Ir, La",3,0.07138161624999917,Cubic,225,Fm-3m,0.0,True,True
mp-865522,YCdAu2,"Au, Cd, Y",3,0.0,Cubic,225,Fm-3m,0.0,True,True
mp-621348,TiInAu2,"Au, In, Ti",3,0.06486772750000114,Cubic,225,Fm-3m,0.0,False,True
mp-862632,LiCa2Al,"Al, Ca, Li",3,0.0,Cubic,225,Fm-3m,0.0,True,True
mp-865066,HfInRh2,"Hf, In, Rh",3,0.0,Cubic,225,Fm-3m,0.0,True,True
mp-864939,Hf2CuIr,"Cu, Hf, Ir",3,0.027659626136513182,Cubic,225,Fm-3m,0.0,True,True
mp-866195,Li2LaTl,"La, Li, Tl",3,0.0,Cubic,225,Fm-3m,0.0,True,True
mp-1100779,ZrZnPt2,"Pt, Zn, Zr",3,0.02439097189849715,Cubic,225,Fm-3m,0.0,True,True
mp-862258,Sc2ZnPt,"Pt, Sc, Zn",3,0.0,Cubic,225,Fm-3m,0.0,True,True
mp-864949,MnGaRh2,"Ga, Mn, Rh",3,0.0,Cubic,225,Fm-3m,0.0,True,True
mp-864909,HfAlRu2,"Al, Hf, Ru",3,0.0,Cubic,225,Fm-3m,0.0,True,True
mp-610190,Zr9(In2Co)7,"Co, In, Zr",3,0.0,Cubic,225,Fm-3m,0.0,False,True
mp-861935,CaSnRh2,"Ca, Rh, Sn",3,0.0,Cubic,225,Fm-3m,0.0,True,True
mp-31328,MnInPd2,"In, Mn, Pd",3,0.0,Cubic,225,Fm-3m,0.0,False,True
mp-977462,ZrCdAu2,"Au, Cd, Zr",3,0.0,Cubic,225,Fm-3m,0.0,True,True
mp-972204,V2MoRu,"Mo, Ru, V",3,0.0,Cubic,225,Fm-3m,0.0,True,True
mp-973099,La2PdRu,"La, Pd, Ru",3,0.0677742764285707,Cubic,225,Fm-3m,0.0,True,True
mp-867769,ScZnRh2,"Rh, Sc, Zn",3,0.0,Cubic,225,Fm-3m,0.0,True,True
mp-1185752,Mg2CdIr,"Cd, Ir, Mg",3,0.03421092936403536,Cubic,225,Fm-3m,0.0,True,True
mp-1185325,LiCa2Pb,"Ca, Li, Pb",3,0.021662026093749454,Cubic,225,Fm-3m,0.0,True,True
mp-861651,Li2PdPb,"Li, Pb, Pd",3,0.07561348500000165,Cubic,225,Fm-3m,0.0,True,True
mp-1187874,YZnPd2,"Pd, Y, Zn",3,0.03853723031249867,Cubic,225,Fm-3m,0.0,True,True
mp-862703,Sc2AgAu,"Ag, Au, Sc",3,0.007804138124999582,Cubic,225,Fm-3m,0.0,True,True
mp-1212451,Hf6Be15Co8,"Be, Co, Hf",3,0.031825735824588364,Cubic,225,Fm-3m,0.0,True,True
mp-21467,TiCo2Sn,"Co, Sn, Ti",3,0.0,Cubic,225,Fm-3m,0.0,False,True
mp-867836,LaZnAu2,"Au, La, Zn",3,0.038238573411123244,Cubic,225,Fm-3m,0.0,True,True
mp-3504,NbNi2Sn,"Nb, Ni, Sn",3,0.051920869838712136,Cubic,225,Fm-3m,0.0,False,True
mp-1212450,Hf6Be15Ni8,"Be, Hf, Ni",3,0.0,Cubic,225,Fm-3m,0.0,True,True
mp-973089,ScTaFe2,"Fe, Sc, Ta",3,0.007106571916667193,Cubic,225,Fm-3m,0.0,True,True
mp-861625,LiZnAg2,"Ag, Li, Zn",3,0.0,Cubic,225,Fm-3m,0.0,True,True
mp-867923,ScGaPt2,"Ga, Pt, Sc",3,0.021843295624996983,Cubic,225,Fm-3m,0.0,True,True
mp-867272,LiAlCu2,"Al, Cu, Li",3,0.0,Cubic,225,Fm-3m,0.0,True,True
mp-1185361,LiNbRu2,"Li, Nb, Ru",3,0.011685360833329383,Cubic,225,Fm-3m,0.0,True,True
mp-866187,Ti2ZnTc,"Tc, Ti, Zn",3,0.0,Cubic,225,Fm-3m,0.0,True,True
mp-867811,TaMnRu2,"Mn, Ru, Ta",3,0.0,Cubic,225,Fm-3m,0.0,True,True
mp-1185424,LiSc2Ga,"Ga, Li, Sc",3,0.02899686645833377,Cubic,225,Fm-3m,0.0,True,True
mp-977383,ZnPd2Au,"Au, Pd, Zn",3,0.016720051250002754,Cubic,225,Fm-3m,0.0,True,True
mp-865278,NbAlOs2,"Al, Nb, Os",3,0.0,Cubic,225,Fm-3m,0.0,True,True
mp-865502,YAgHg2,"Ag, Hg, Y",3,0.0,Cubic,225,Fm-3m,0.0,True,True
mp-5407,TiAlCo2,"Al, Co, Ti",3,0.0,Cubic,225,Fm-3m,0.0,False,True
mp-1185248,LiYPd2,"Li, Pd, Y",3,0.035735730124997644,Cubic,225,Fm-3m,0.0,True,True
mp-865919,MgAlAg2,"Ag, Al, Mg",3,0.0,Cubic,225,Fm-3m,0.0,True,True
mp-862705,AlZnIr2,"Al, Ir, Zn",3,0.0,Cubic,225,Fm-3m,0.0,True,True
mp-984784,Ba2ZnCd,"Ba, Cd, Zn",3,0.007584713333333992,Cubic,225,Fm-3m,0.0,True,True
mp-867135,ScZnPd2,"Pd, Sc, Zn",3,0.0,Cubic,225,Fm-3m,0.0,True,True
mp-864932,Mg2AgPt,"Ag, Mg, Pt",3,0.0,Cubic,225,Fm-3m,0.0,True,True
mp-862723,ScTc2Mo,"Mo, Sc, Tc",3,0.049238216875002294,Cubic,225,Fm-3m,0.0,True,True