material_id,formula,elements,num_elements,energy_above_hull,crystal_system,spacegroup_number,spacegroup_symbol,band_gap,theoretical,is_metal
mp-569743,Ti4MnBi2,"Bi, Mn, Ti",3,0.0,Tetragonal,140,I4/mcm,0.0,False,True
mp-1208257,Ti4CrBi2,"Bi, Cr, Ti",3,0.0,Tetragonal,140,I4/mcm,0.0,True,True
mp-1197673,La6Co13Pb,"Co, La, Pb",3,0.0,Tetragonal,140,I4/mcm,0.0,False,True
mp-21297,LiSn4Ru,"Li, Ru, Sn",3,0.0,Tetragonal,140,I4/mcm,0.0,False,True
mp-1214527,Ba3Sn4Bi,"Ba, Bi, Sn",3,0.009661410144230054,Tetragonal,140,I4/mcm,0.0,True,True
mp-1192662,SrCu9Sn4,"Cu, Sn, Sr",3,0.0,Tetragonal,140,I4/mcm,0.0,False,True
mp-510484,Ca(Ni2Sn)2,"Ca, Ni, Sn",3,0.0,Tetragonal,140,I4/mcm,0.0,False,True
mp-1105702,Zr4NbGa3,"Ga, Nb, Zr",3,0.0,Tetragonal,140,I4/mcm,0.0,False,True
mp-571034,CaCu9Sn4,"Ca, Cu, Sn",3,0.007251159285712738,Tetragonal,140,I4/mcm,0.0,False,True
mp-1200922,La6TlCo13,"Co, La, Tl",3,0.0,Tetragonal,140,I4/mcm,0.0,False,True
mp-1189582,Y5Ni2Bi,"Bi, Ni, Y",3,0.0075083071874981755,Tetragonal,140,I4/mcm,0.0,False,True
mp-21894,LiSn4Ir,"Ir, Li, Sn",3,0.0,Tetragonal,140,I4/mcm,0.0,False,True
mp-1106139,In4Bi3Pb,"Bi, In, Pb",3,0.08531945437499777,Tetragonal,140,I4/mcm,0.0,False,True
mp-20804,Rb(InAu2)2,"Au, In, Rb",3,0.0,Tetragonal,140,I4/mcm,0.0,False,True
mp-1104488,Sr(Cu2Sn)2,"Cu, Sn, Sr",3,0.027580087142861753,Tetragonal,140,I4/mcm,0.0,False,True
mp-20202,MgSn4Ru,"Mg, Ru, Sn",3,0.0,Tetragonal,140,I4/mcm,0.0,False,True
mp-571457,Ti4NiBi2,"Bi, Ni, Ti",3,0.0,Tetragonal,140,I4/mcm,0.0,False,True
mp-21134,K(InAu2)2,"Au, In, K",3,0.0,Tetragonal,140,I4/mcm,0.0,False,True
mp-1211603,La6Al5Fe9,"Al, Fe, La",3,0.0,Tetragonal,140,I4/mcm,0.0,True,True
mp-16648,LiSn4Rh,"Li, Rh, Sn",3,0.0,Tetragonal,140,I4/mcm,0.0,False,True
mp-570271,Ti4FeBi2,"Bi, Fe, Ti",3,0.0,Tetragonal,140,I4/mcm,0.0,False,True
mp-1192715,BaCu9Sn4,"Ba, Cu, Sn",3,0.0,Tetragonal,140,I4/mcm,0.0,False,True
mp-1104302,La(Ni2Sn)2,"La, Ni, Sn",3,0.0,Tetragonal,140,I4/mcm,0.0,True,True
mp-1211934,La6AlFe13,"Al, Fe, La",3,0.024032911149999947,Tetragonal,140,I4/mcm,0.0,True,True
mp-1214009,Ca4MgSn3,"Ca, Mg, Sn",3,0.014805861136361731,Tetragonal,140,I4/mcm,0.0,True,True
mp-1208727,Sr3Sn4Bi,"Bi, Sn, Sr",3,0.0,Tetragonal,140,I4/mcm,0.0,True,True
mp-1196549,La6Fe13Pb,"Fe, La, Pb",3,0.014089439000000148,Tetragonal,140,I4/mcm,0.0,False,True
mp-1203758,La6InCo13,"Co, In, La",3,0.007310476000000676,Tetragonal,140,I4/mcm,0.0,False,True
mp-1199127,La6Co13Sn,"Co, La, Sn",3,0.0,Tetragonal,140,I4/mcm,0.0,False,True
mp-1207753,Y5BiPd2,"Bi, Pd, Y",3,0.0,Tetragonal,140,I4/mcm,0.0,True,True
mp-1198430,La6Fe13Sn,"Fe, La, Sn",3,0.013669822249999797,Tetragonal,140,I4/mcm,0.0,False,True
mp-1207770,Y5BiPt2,"Bi, Pt, Y",3,0.0,Tetragonal,140,I4/mcm,0.0,True,True
mp-1211667,La6Mn9Al5,"Al, La, Mn",3,0.03865459705603591,Tetragonal,140,I4/mcm,0.0,True,True
mp-1078460,Li2CuSn2,"Cu, Li, Sn",3,0.0,Tetragonal,141,I4_1/amd,0.0,False,True
mp-1080714,Li2AgSn2,"Ag, Li, Sn",3,0.0,Tetragonal,141,I4_1/amd,0.0,False,True
mp-31496,Li2Sn2Au,"Au, Li, Sn",3,0.0,Tetragonal,141,I4_1/amd,0.0,False,True
mp-1203372,Sc5(CoSn3)6,"Co, Sc, Sn",3,0.0,Tetragonal,142,I4_1/acd,0.019399999999999196,False,False
mp-569111,Sr14MnBi11,"Bi, Mn, Sr",3,0.0,Tetragonal,142,I4_1/acd,0.0,False,True
mp-570149,Ca14MnBi11,"Bi, Ca, Mn",3,0.0,Tetragonal,142,I4_1/acd,0.0,True,True
mp-567518,Ba14MnBi11,"Ba, Bi, Mn",3,0.0,Tetragonal,142,I4_1/acd,0.0,True,True
mp-1224821,Ga4Ni3Pd,"Ga, Ni, Pd",3,0.022373894955357798,Trigonal,146,R3,0.0,True,True
mp-680394,Ca3AlCd17,"Al, Ca, Cd",3,0.0042443624603181185,Trigonal,146,R3,0.0,False,True
mp-30662,Zn3Ga4Pd7,"Ga, Pd, Zn",3,0.01934726714285695,Trigonal,146,R3,0.0,False,True
mp-1224838,Ga4Ni3Pt,"Ga, Ni, Pt",3,0.002767680072116363,Trigonal,146,R3,0.0,True,True
mp-1215074,Ag3Pd13Pb6,"Ag, Pb, Pd",3,0.05115647760890596,Trigonal,152,P3_121,0.0,True,True
mp-1189061,Y3MnAu5,"Au, Mn, Y",3,0.06655152856321678,Trigonal,148,R-3,0.0,False,True
mp-1203338,Ga40SnMo8,"Ga, Mo, Sn",3,0.0,Trigonal,148,R-3,0.0,False,True
mp-1197144,Y(Ga5Mo)8,"Ga, Mo, Y",3,0.018813998388459652,Trigonal,148,R-3,0.0,False,True
mp-1223685,K9NaTl13,"K, Na, Tl",3,0.0458300604687516,Trigonal,148,R-3,0.0,True,True
mp-1203027,Ga40AgMo8,"Ag, Ga, Mo",3,0.0,Trigonal,148,R-3,0.0,False,True
mp-1204344,Ga40CuMo8,"Cu, Ga, Mo",3,0.0030704205037537236,Trigonal,148,R-3,0.0,False,True
mp-1195837,Ga40Mo8Au,"Au, Ga, Mo",3,0.0,Trigonal,148,R-3,0.0,True,True
mp-580480,Mn8Zn14Ga27,"Ga, Mn, Zn",3,0.010641511051806773,Trigonal,148,R-3,0.0,False,True
mp-1204258,La(Ga5Mo)8,"Ga, La, Mo",3,0.01605845618578705,Trigonal,148,R-3,0.0,False,True
mp-1203283,Sc(Ga5Mo)8,"Ga, Mo, Sc",3,0.013697897266011339,Trigonal,148,R-3,0.0,False,True
mp-1220586,Nb3V3Ir2,"Ir, Nb, V",3,0.045706094374999395,Trigonal,155,R32,0.0,True,True
mp-1224669,K16Tl22Pd,"K, Pd, Tl",3,0.0,Trigonal,155,R32,0.0,True,True
mp-1217094,Ti3Nb3Sn2,"Nb, Sn, Ti",3,0.0,Trigonal,155,R32,0.0,True,True
mp-1220636,Nb3Al2Mo3,"Al, Mo, Nb",3,0.02455129890000407,Trigonal,155,R32,0.0,True,True
mp-567528,Li17(AgSn2)3,"Ag, Li, Sn",3,0.010153983769230823,Trigonal,157,P31m,0.0,False,True
mp-1220667,Nb3AlFe8,"Al, Fe, Nb",3,0.02007405083333147,Trigonal,156,P3m1,0.0,True,True
mp-1227488,Ca(BiAu3)2,"Au, Bi, Ca",3,0.0,Trigonal,156,P3m1,0.0,True,True
mp-1220247,Sc(TiFe3)2,"Fe, Sc, Ti",3,0.009783783611110763,Trigonal,156,P3m1,0.0,True,True
mp-1215704,Zr3Mn8Al,"Al, Mn, Zr",3,0.0,Trigonal,156,P3m1,0.0,True,True
mp-1221748,Mn8Nb3Al,"Al, Mn, Nb",3,0.0,Trigonal,156,P3m1,0.0,True,True
mp-1228194,Al6CoCu3,"Al, Co, Cu",3,0.0,Trigonal,156,P3m1,0.0,True,True
mp-1216007,YZr2Ni15,"Ni, Y, Zr",3,0.04007497888888789,Trigonal,156,P3m1,0.0,True,True
mp-1216072,Y2Ga3Ag,"Ag, Ga, Y",3,0.0,Trigonal,156,P3m1,0.0,True,True
mp-1222173,Mg3ScZn8,"Mg, Sc, Zn",3,0.0039509044827599205,Trigonal,156,P3m1,0.0,True,True
mp-1227757,Ca3BiAu14,"Au, Bi, Ca",3,5.001055555897693e-05,Trigonal,156,P3m1,0.0,True,True
mp-1224446,Hf3TaFe8,"Fe, Hf, Ta",3,0.01984791416666809,Trigonal,156,P3m1,0.0,True,True
mp-1220105,Ni3(Sn2Pt)2,"Ni, Pt, Sn",3,0.03719527972222103,Trigonal,156,P3m1,0.0,True,True
mp-1216178,Y3(Ga2Cu)2,"Cu, Ga, Y",3,0.025224064074079067,Trigonal,156,P3m1,0.0,True,True
mp-1216081,Y2Ga3Cu,"Cu, Ga, Y",3,0.0,Trigonal,156,P3m1,0.0,True,True
mp-1218090,Ta3AlFe8,"Al, Fe, Ta",3,0.029846799166667992,Trigonal,156,P3m1,0.0,True,True
mp-1224151,In3Sn3Au4,"Au, In, Sn",3,0.029943693437509467,Trigonal,156,P3m1,0.0,True,True
mp-1229014,Ca3(InGa2)2,"Ca, Ga, In",3,0.03166314166666773,Trigonal,156,P3m1,0.0,True,True
mp-1219928,PdPtAu,"Au, Pd, Pt",3,0.05507961555555596,Trigonal,156,P3m1,0.0,True,True
mp-1215398,Zr3TiMn8,"Mn, Ti, Zr",3,0.011996466458333188,Trigonal,156,P3m1,0.0,True,True
mp-1223662,IrOsRu,"Ir, Os, Ru",3,0.06329979458332957,Trigonal,156,P3m1,0.0,True,True
mp-1216091,Y2Ga3Ni,"Ga, Ni, Y",3,0.025366930000000565,Trigonal,156,P3m1,0.0,True,True
mp-1227928,BaSrPb6,"Ba, Pb, Sr",3,0.0006735720833357384,Trigonal,156,P3m1,0.0,True,True
mp-1227423,Be8NbCr3,"Be, Cr, Nb",3,0.024979439255952585,Trigonal,156,P3m1,0.0,True,True
mp-30477,LiCaSn,"Ca, Li, Sn",3,0.0,Trigonal,156,P3m1,0.0,False,True
mp-1220670,Nb3AlCr8,"Al, Cr, Nb",3,0.034457493000008554,Trigonal,156,P3m1,0.0,True,True
mp-1219410,Sc3(Ga2Ni)2,"Ga, Ni, Sc",3,0.08455759527777396,Trigonal,156,P3m1,0.0,True,True
mp-1227750,Ca6MnAl11,"Al, Ca, Mn",3,0.01597873168803421,Trigonal,156,P3m1,0.0,True,True
mp-1218087,Ta3Mn8Al,"Al, Mn, Ta",3,0.0,Trigonal,156,P3m1,0.0,True,True
mp-1218061,Ta3AlCr8,"Al, Cr, Ta",3,0.017146381250000786,Trigonal,156,P3m1,0.0,True,True
mp-1218858,Sr2AlIn3,"Al, In, Sr",3,0.020718350416665476,Trigonal,156,P3m1,0.0,True,True
mp-1219001,Sn2Pd2Au,"Au, Pd, Sn",3,0.0332719329999982,Trigonal,156,P3m1,0.0,True,True
mp-1217381,Ti10CuSn6,"Cu, Sn, Ti",3,0.017575787058824233,Trigonal,162,P-31m,0.0,True,True
mp-1224607,Hf10CuSn7,"Cu, Hf, Sn",3,0.0,Trigonal,162,P-31m,0.0,True,True
mp-1215872,Zr3MnCo8,"Co, Mn, Zr",3,0.018048595134536605,Trigonal,160,R3m,0.0,True,True
mp-981988,Y(Mg4Al3)4,"Al, Mg, Y",3,0.01712422012931203,Trigonal,160,R3m,0.0,True,True
mp-1203560,La15Cd2Rh5,"Cd, La, Rh",3,0.0,Trigonal,160,R3m,0.0,False,True
mp-1185680,Mg16Al12Ni,"Al, Mg, Ni",3,0.053502358922414395,Trigonal,160,R3m,0.0,True,True
mp-27368,NaLi5Sn4,"Li, Na, Sn",3,0.08292859395833307,Trigonal,160,R3m,0.0,False,True
mp-1185678,Mg16Al12Pb,"Al, Mg, Pb",3,0.019698001724137715,Trigonal,160,R3m,0.0,True,True
mp-1221807,Mn3Al2V3,"Al, Mn, V",3,0.054815444374998634,Trigonal,160,R3m,0.0,True,True
mp-1215560,Zr3NbZn8,"Nb, Zn, Zr",3,0.01564493847222259,Trigonal,160,R3m,0.0,True,True
mp-1215266,ZrTi2Ni9,"Ni, Ti, Zr",3,0.01851818750000067,Trigonal,160,R3m,0.0,True,True
mp-1217391,Ti13Al9Co8,"Al, Co, Ti",3,0.0,Trigonal,160,R3m,0.0,True,True
mp-1224459,Hf3TaCo8,"Co, Hf, Ta",3,0.04359664763889093,Trigonal,160,R3m,0.0,True,True
mp-1220600,NbVCo6,"Co, Nb, V",3,0.023038301666667316,Trigonal,160,R3m,0.0,True,True
mp-1227887,Ca3MgNi14,"Ca, Mg, Ni",3,0.0047218738194452214,Trigonal,160,R3m,0.0,True,True
mp-1217124,Ti2Co3Sn2,"Co, Sn, Ti",3,0.0,Trigonal,160,R3m,0.0,True,True
mp-1185688,Mg16Al12Os,"Al, Mg, Os",3,0.07590591601652408,Trigonal,160,R3m,0.0,True,True
mp-1185733,Mg16TiAl12,"Al, Mg, Ti",3,0.05960157357758833,Trigonal,160,R3m,0.0,True,True
mp-1185727,Mg16ScAl12,"Al, Mg, Sc",3,0.028411205301724696,Trigonal,160,R3m,0.0,True,True
mp-1216367,Y2CoNi5,"Co, Ni, Y",3,0.017045911794872026,Trigonal,160,R3m,0.0,True,True
mp-1216765,V2Co9W,"Co, V, W",3,0.00785949305555178,Trigonal,160,R3m,0.0,True,True
mp-1185175,Li(Mg4Al3)4,"Al, Li, Mg",3,0.0046335168247138014,Trigonal,160,R3m,0.0,True,True
mp-1218404,Sr3CaAl8,"Al, Ca, Sr",3,0.02202365624999736,Trigonal,160,R3m,0.0,True,True
mp-1216240,YZrCo6,"Co, Y, Zr",3,0.044915223589740094,Trigonal,160,R3m,0.0,True,True
mp-1185668,Mg16Al12Hg,"Al, Hg, Mg",3,0.018029626494254103,Trigonal,160,R3m,0.0,True,True
mp-1215698,Zr3Fe8Mo,"Fe, Mo, Zr",3,0.0431416458333338,Trigonal,160,R3m,0.0,True,True
mp-1185673,Mg16Al12Mo,"Al, Mg, Mo",3,0.08742660883620657,Trigonal,160,R3m,0.0,True,True
mp-1224470,Hf3TiV8,"Hf, Ti, V",3,0.04815679722222299,Trigonal,160,R3m,0.0,True,True
mp-1185645,Mg16Al12Au,"Al, Au, Mg",3,0.029505097126437008,Trigonal,160,R3m,0.0,True,True
mp-1222115,Mg7GaAg12,"Ag, Ga, Mg",3,0.011598164000000022,Trigonal,160,R3m,0.0,True,True
mp-1185735,Mg16ZrAl12,"Al, Mg, Zr",3,0.04285486668103511,Trigonal,160,R3m,0.0,True,True
mp-1232421,Mg16Al12Tl,"Al, Mg, Tl",3,0.012046963620690132,Trigonal,160,R3m,0.0,True,True
mp-1222587,Li5TlIn,"In, Li, Tl",3,0.006550640714282352,Trigonal,160,R3m,0.0,True,True
mp-1222443,Li4ZnCd3,"Cd, Li, Zn",3,0.011713415625001389,Trigonal,160,R3m,0.0,True,True
mp-1215821,YZr2Co9,"Co, Y, Zr",3,0.04355288431818494,Trigonal,160,R3m,0.0,True,True
mp-1216772,V2Co9Mo,"Co, Mo, V",3,0.008524504305553293,Trigonal,160,R3m,0.0,True,True
mp-1185643,Mg16Al12Ag,"Ag, Al, Mg",3,0.016589450344828283,Trigonal,160,R3m,0.0,True,True
mp-1220669,Nb3AlCo8,"Al, Co, Nb",3,0.061310391666665964,Trigonal,160,R3m,0.0,True,True
mp-1216183,Y3VCo8,"Co, V, Y",3,0.043691448611109074,Trigonal,160,R3m,0.0,True,True
mp-1185701,Mg16Al12Re,"Al, Mg, Re",3,0.0943219082758624,Trigonal,160,R3m,0.0,True,True
mp-1185658,Mg16Al12Cr,"Al, Cr, Mg",3,0.06309139176724088,Trigonal,160,R3m,0.0,True,True
mp-1223096,La2TiCo16,"Co, La, Ti",3,0.002110621647597455,Trigonal,160,R3m,0.0,True,True
mp-1229031,AgPd2Au,"Ag, Au, Pd",3,0.021491658125000868,Trigonal,160,R3m,0.0,True,True
mp-1185703,Mg16Al12Rh,"Al, Mg, Rh",3,0.05451382191810383,Trigonal,160,R3m,0.0,True,True
mp-1185656,Mg16Al12Co,"Al, Co, Mg",3,0.07665990372844877,Trigonal,160,R3m,0.0,True,True
mp-1221730,Mn7Al4V5,"Al, Mn, V",3,0.03251016093750181,Trigonal,160,R3m,0.0,True,True
mp-1185644,Mg16Al12Bi,"Al, Bi, Mg",3,0.03500117741379283,Trigonal,160,R3m,0.0,True,True
mp-1185690,Mg16Al12Pd,"Al, Mg, Pd",3,0.029491349574353176,Trigonal,160,R3m,0.0,True,True
mp-1185700,Mg16Al12Pt,"Al, Mg, Pt",3,0.04012313485452568,Trigonal,160,R3m,0.0,True,True
mp-1185717,Mg16Al12W,"Al, Mg, W",3,0.09003342590517205,Trigonal,160,R3m,0.0,True,True
mp-1185716,Mg16Al12V,"Al, Mg, V",3,0.0782024863362083,Trigonal,160,R3m,0.0,True,True
mp-1223059,La3ScAl8,"Al, La, Sc",3,0.02766178833333477,Trigonal,160,R3m,0.0,True,True
mp-1227595,Ca2Bi3Au10,"Au, Bi, Ca",3,0.0004395786666693269,Trigonal,160,R3m,0.0,True,True
mp-1228507,Ba2(CaAl3)3,"Al, Ba, Ca",3,0.008165560153056806,Trigonal,160,R3m,0.0,True,True
mp-1221922,Mn3Ni3Sn2,"Mn, Ni, Sn",3,0.0704081379633621,Trigonal,160,R3m,0.0,True,True
mp-1185663,Mg16Al12Ga,"Al, Ga, Mg",3,0.009882873017241778,Trigonal,160,R3m,0.0,True,True
mp-1215394,Zr3TiZn8,"Ti, Zn, Zr",3,0.0062484654166690135,Trigonal,160,R3m,0.0,True,True
mp-1222154,Mg4Sn6Pt5,"Mg, Pt, Sn",3,0.0,Trigonal,160,R3m,0.0,True,True
mp-1227383,Ca2AlZn16,"Al, Ca, Zn",3,0.0,Trigonal,160,R3m,0.0,True,True
mp-1185661,Mg16Al12Fe,"Al, Fe, Mg",3,0.07986634998204156,Trigonal,160,R3m,0.0,True,True
mp-1223090,La2VCo16,"Co, La, V",3,0.020473611033562378,Trigonal,160,R3m,0.0,True,True
mp-1216143,Y2(MgZn)3,"Mg, Y, Zn",3,0.01616511479166416,Trigonal,160,R3m,0.0,True,True
mp-1185659,Mg16Al12Cu,"Al, Cu, Mg",3,0.03217890537356416,Trigonal,160,R3m,0.0,True,True
mp-1185730,Mg16TaAl12,"Al, Mg, Ta",3,0.07501031116379409,Trigonal,160,R3m,0.0,True,True
mp-1185176,La(Mg4Al3)4,"Al, La, Mg",3,0.02420740410440736,Trigonal,160,R3m,0.0,True,True
mp-1215720,Zr3AlFe8,"Al, Fe, Zr",3,0.0,Trigonal,160,R3m,0.0,True,True
mp-1185719,Mg16Al12Zn,"Al, Mg, Zn",3,0.010374650434482824,Trigonal,160,R3m,0.0,True,True
mp-1184744,Hf(Mg4Al3)4,"Al, Hf, Mg",3,0.04267087633620914,Trigonal,160,R3m,0.0,True,True
mp-1220664,Nb3AlCr8,"Al, Cr, Nb",3,0.013907153000008776,Trigonal,160,R3m,0.0,True,True
mp-1185651,Mg16Al12Cd,"Al, Cd, Mg",3,0.011412076551724937,Trigonal,160,R3m,0.0,True,True
mp-1185722,Mg16BeAl12,"Al, Be, Mg",3,0.04286723775862189,Trigonal,160,R3m,0.0,True,True
mp-1185724,Mg16MnAl12,"Al, Mg, Mn",3,0.06137511629310355,Trigonal,160,R3m,0.0,True,True
mp-1185702,Mg16Al12Ru,"Al, Mg, Ru",3,0.07038954630388083,Trigonal,160,R3m,0.0,True,True
mp-1215811,Zr3AlCo8,"Al, Co, Zr",3,0.02218376287878865,Trigonal,160,R3m,0.0,True,True
mp-1187115,Sr(Mg4Al3)4,"Al, Mg, Sr",3,0.02814350091954454,Trigonal,160,R3m,0.0,True,True
mp-1215395,Zr3TiFe8,"Fe, Ti, Zr",3,0.0020697333333323797,Trigonal,160,R3m,0.0,True,True
mp-1222568,Li3Ag3Sn2,"Ag, Li, Sn",3,0.02507126624999989,Trigonal,160,R3m,0.0,True,True
mp-1215420,Zr3TaFe8,"Fe, Ta, Zr",3,0.01369184583333194,Trigonal,160,R3m,0.0,True,True
mp-1221431,MoPd2Rh,"Mo, Pd, Rh",3,0.06564213333333058,Trigonal,160,R3m,0.0,True,True
mp-975424,Rb(Mg4Al3)4,"Al, Mg, Rb",3,0.05614418456896697,Trigonal,160,R3m,0.0,True,True
mp-1185709,Mg16Al12Sn,"Al, Mg, Sn",3,0.023211030344828742,Trigonal,160,R3m,0.0,True,True
mp-1185712,Mg16Al12Tc,"Al, Mg, Tc",3,0.08793945448275897,Trigonal,160,R3m,0.0,True,True
mp-1185681,Mg16Al12Ir,"Al, Ir, Mg",3,0.06382506286638012,Trigonal,160,R3m,0.0,True,True
mp-1223423,La2MgNi9,"La, Mg, Ni",3,0.0025628774999999493,Trigonal,160,R3m,0.0,True,True
mp-1215413,ZnCu2Ni,"Cu, Ni, Zn",3,0.08774940750000049,Trigonal,160,R3m,0.0,True,True
mp-1186062,Na(Mg4Al3)4,"Al, Mg, Na",3,0.009527420642094775,Trigonal,160,R3m,0.0,True,True
mp-1147766,Ca(AlSn)2,"Al, Ca, Sn",3,0.08107221249999741,Trigonal,164,P-3m1,0.0,True,True
mp-1215230,ZrTiMn4,"Mn, Ti, Zr",3,0.014349155416667259,Trigonal,164,P-3m1,0.0,True,True
mp-1215291,ZrTiFe4,"Fe, Ti, Zr",3,0.01731323166666776,Trigonal,164,P-3m1,0.0,True,True
mp-1219015,Sn2Pd3Au,"Au, Pd, Sn",3,0.03203791791666433,Trigonal,164,P-3m1,0.0,True,True
mp-1215298,ZrTaFe4,"Fe, Ta, Zr",3,0.02200760583333583,Trigonal,164,P-3m1,0.0,True,True
mp-1215221,ZrTiCr4,"Cr, Ti, Zr",3,0.02946728750000105,Trigonal,164,P-3m1,0.0,True,True
mp-29208,Ca(MgBi)2,"Bi, Ca, Mg",3,0.0,Trigonal,164,P-3m1,0.3886000000000003,False,False
mp-1018782,Li3YBi2,"Bi, Li, Y",3,0.0,Trigonal,164,P-3m1,0.0,False,True
mp-1227348,Be4NbMo,"Be, Mo, Nb",3,0.0091626151785702,Trigonal,164,P-3m1,0.0,True,True
mp-1069695,Sr(MgBi)2,"Bi, Mg, Sr",3,0.0,Trigonal,164,P-3m1,0.3824000000000001,False,False
mp-1218042,TaCo4Mo,"Co, Mo, Ta",3,0.08351608472222694,Trigonal,164,P-3m1,0.0,True,True
mp-1227322,Bi2PdPt,"Bi, Pd, Pt",3,0.0,Trigonal,164,P-3m1,0.0,True,True
mp-1227375,Be4CrMo,"Be, Cr, Mo",3,0.0211848141666664,Trigonal,164,P-3m1,0.0,True,True
mp-1220454,NbAlFe4,"Al, Fe, Nb",3,0.08192640749999747,Trigonal,164,P-3m1,0.0,True,True
mp-1224401,HfTiFe4,"Fe, Hf, Ti",3,0.012174169999999762,Trigonal,164,P-3m1,0.0,True,True
mp-1215657,Zn9Ga3Mo2,"Ga, Mo, Zn",3,0.0,Trigonal,164,P-3m1,0.0,True,True
mp-1206638,NiSn2Au,"Au, Ni, Sn",3,0.0,Trigonal,164,P-3m1,0.0,True,True
mp-1221536,Mn2SnPd3,"Mn, Pd, Sn",3,0.0,Trigonal,164,P-3m1,0.0,True,True
mp-1228005,BaGaSn,"Ba, Ga, Sn",3,0.05944599854166954,Trigonal,164,P-3m1,0.0,True,True
mp-1227359,Be4AlCr,"Al, Be, Cr",3,0.0,Trigonal,164,P-3m1,0.0,True,True
mp-1198642,Y7Co6Sn23,"Co, Sn, Y",3,0.0,Trigonal,164,P-3m1,0.0,False,True
mp-1018768,Li3LaBi2,"Bi, La, Li",3,0.0,Trigonal,164,P-3m1,0.1578999999999997,False,False
mp-29209,Ba(MgBi)2,"Ba, Bi, Mg",3,0.0,Trigonal,164,P-3m1,0.3967999999999998,False,False
mp-1215929,YMgAl4,"Al, Mg, Y",3,0.03614217625000027,Trigonal,164,P-3m1,0.0,True,True
mp-1211475,La4Al51W7,"Al, La, W",3,0.015252271827950636,Trigonal,164,P-3m1,0.0,True,True
mp-1224427,HfTaFe4,"Fe, Hf, Ta",3,0.01628695000000313,Trigonal,164,P-3m1,0.0,True,True
mp-1208228,Ti3NbAl2,"Al, Nb, Ti",3,0.0,Trigonal,164,P-3m1,0.0,True,True
mp-30174,Ca4Al51Cr7,"Al, Ca, Cr",3,0.0003604342607612665,Trigonal,164,P-3m1,0.0,True,True
mp-1217865,Ta19(Ni9Mo)2,"Mo, Ni, Ta",3,0.010175605948717248,Trigonal,164,P-3m1,0.0,True,True
mp-1215290,ZrNbFe4,"Fe, Nb, Zr",3,0.025331385000001205,Trigonal,164,P-3m1,0.0,True,True
mp-1218970,Sn2PdAu,"Au, Pd, Sn",3,0.0,Trigonal,164,P-3m1,0.0,True,True
mp-1217934,TaTiFe4,"Fe, Ta, Ti",3,0.010566738333336545,Trigonal,164,P-3m1,0.0,True,True
mp-1217980,TaBe4Mo,"Be, Mo, Ta",3,0.008573714464284343,Trigonal,164,P-3m1,0.0,True,True
mp-1229248,Ca65Ga24Sn19,"Ca, Ga, Sn",3,0.0,Trigonal,164,P-3m1,0.1431,True,False
mp-1216848,TiNbFe4,"Fe, Nb, Ti",3,0.013524201666667679,Trigonal,164,P-3m1,0.0,True,True
mp-1217935,TaFe4W,"Fe, Ta, W",3,0.0,Trigonal,164,P-3m1,0.0,True,True
mp-1222031,Mn11Al4V,"Al, Mn, V",3,0.05287502202586225,Trigonal,166,R-3m,0.0,True,True
mp-1223802,Hf2Al3Zn,"Al, Hf, Zn",3,0.0,Trigonal,166,R-3m,0.0,True,True
mp-30580,SrGaCu2,"Cu, Ga, Sr",3,0.0,Trigonal,166,R-3m,0.0,False,True
mp-1215478,Zr2VCo3,"Co, V, Zr",3,0.05065256333332968,Trigonal,166,R-3m,0.0,True,True
mp-1008511,BaGaCu2,"Ba, Cu, Ga",3,0.0,Trigonal,166,R-3m,0.0,False,True
mp-1188725,Y2Ga2Fe15,"Fe, Ga, Y",3,0.08546777421052543,Trigonal,166,R-3m,0.0,False,True
mp-1216057,Y2NiRu3,"Ni, Ru, Y",3,0.0,Trigonal,166,R-3m,0.0,True,True
mp-1216066,Y2CoRu3,"Co, Ru, Y",3,0.0013884870833322793,Trigonal,166,R-3m,0.0,True,True
mp-1222754,LaYMg6,"La, Mg, Y",3,0.006342168750001154,Trigonal,166,R-3m,0.0,True,True
mp-1215554,Zr2FeCo3,"Co, Fe, Zr",3,0.0,Trigonal,166,R-3m,0.0,True,True
mp-1219430,Sc2AlCo3,"Al, Co, Sc",3,0.03972760666666453,Trigonal,166,R-3m,0.0,True,True
mp-1220689,Nb(ZnGa)3,"Ga, Nb, Zn",3,0.0,Trigonal,166,R-3m,0.0,True,True
mp-1224324,Hf2Al3Ag,"Ag, Al, Hf",3,0.0017221758333256787,Trigonal,166,R-3m,0.0,True,True
mp-30416,Rb4Sn2Au7,"Au, Rb, Sn",3,0.0,Trigonal,166,R-3m,0.0,False,True
mp-1188794,Y2Mn5Co12,"Co, Mn, Y",3,0.05044625138326797,Trigonal,166,R-3m,0.0,False,True
mp-1216123,Y2Al3Fe,"Al, Fe, Y",3,0.010545887870370585,Trigonal,166,R-3m,0.0,True,True
mp-865990,Y3Al7Cu2,"Al, Cu, Y",3,0.0,Trigonal,166,R-3m,0.0,True,True
mp-1221389,Mn5Ni8Sn3,"Mn, Ni, Sn",3,0.03088020536548175,Trigonal,166,R-3m,0.0,True,True
mp-1215477,Zr2Al3Ni,"Al, Ni, Zr",3,0.010162700833330263,Trigonal,166,R-3m,0.0,True,True
mp-1215479,Zr2V3Fe,"Fe, V, Zr",3,0.0,Trigonal,166,R-3m,0.0,True,True
mp-1224327,Hf2Al3Au,"Al, Au, Hf",3,0.0,Trigonal,166,R-3m,0.0,True,True
mp-1227816,Ca3Mg2Ni13,"Ca, Mg, Ni",3,0.008574695138889865,Trigonal,166,R-3m,0.0,True,True
mp-1215510,Zr2Al3Co,"Al, Co, Zr",3,0.008885999352942875,Trigonal,166,R-3m,0.0,True,True
mp-1215552,Zr2AlFe3,"Al, Fe, Zr",3,0.011692672500002388,Trigonal,166,R-3m,0.0,True,True