material_id,formula,elements,num_elements,energy_above_hull,crystal_system,spacegroup_number,spacegroup_symbol,band_gap,theoretical,is_metal
mp-1210716,Mg6NiSn,"Mg, Ni, Sn",3,0.01460443260416655,Tetragonal,101,P4_2cm,0.0,True,True
mp-31407,Ba5In4Bi5,"Ba, Bi, In",3,0.001364918736263654,Tetragonal,104,P4nc,0.0,False,True
mp-1225200,FeCoSn2,"Co, Fe, Sn",3,0.025383974166666157,Monoclinic,10,P2/m,0.0,True,True
mp-1215564,ZnCuAu2,"Au, Cu, Zn",3,0.015102307499998968,Monoclinic,10,P2/m,0.0,True,True
mp-607475,Zr4In5Co2,"Co, In, Zr",3,0.0,Monoclinic,10,P2/m,0.0,False,True
mp-1215609,ZnGa11Co4,"Co, Ga, Zn",3,0.0,Monoclinic,10,P2/m,0.2397999999999998,True,False
mp-1223301,La2Al3Cu7,"Al, Cu, La",3,0.0,Monoclinic,10,P2/m,0.0,True,True
mp-1227912,Ca11(Cd9Au2)2,"Au, Ca, Cd",3,0.007351352121213184,Tetragonal,109,I4_1md,0.0,True,True
mp-1225981,La2Al7Ni,"Al, La, Ni",3,0.005589797749989245,Tetragonal,109,I4_1md,0.0,True,True
mp-1223390,La6Al3Fe11,"Al, Fe, La",3,0.010637716949998932,Tetragonal,108,I4cm,0.0,True,True
mp-1223645,La6Ga3Co11,"Co, Ga, La",3,0.0,Tetragonal,108,I4cm,0.0,True,True
mp-1055899,NbInNi,"In, Nb, Ni",3,0.09176686190476246,Tetragonal,107,I4mm,0.0,True,True
mp-1227349,BaZnIn3,"Ba, In, Zn",3,0.0,Tetragonal,107,I4mm,0.0,True,True
mp-30805,SrNiSn3,"Ni, Sn, Sr",3,0.0,Tetragonal,107,I4mm,0.0,False,True
mp-1201034,ZrGa2Co,"Co, Ga, Zr",3,0.0,Tetragonal,107,I4mm,0.0,False,True
mp-30433,BaSn3Pt,"Ba, Pt, Sn",3,0.0,Tetragonal,107,I4mm,0.0,False,True
mp-1216850,TiCuNi,"Cu, Ni, Ti",3,0.0,Tetragonal,107,I4mm,0.0,True,True
mp-1227345,BaTl3Au,"Au, Ba, Tl",3,0.013759600333332234,Tetragonal,107,I4mm,0.0,True,True
mp-1227962,BaCd3Ga,"Ba, Cd, Ga",3,0.0010694490000009438,Tetragonal,107,I4mm,0.0,True,True
mp-1218256,SrIn3Hg,"Hg, In, Sr",3,0.0001848974444444984,Tetragonal,107,I4mm,0.0,True,True
mp-1200150,ZrGa2Ni,"Ga, Ni, Zr",3,0.0,Tetragonal,107,I4mm,0.0,False,True
mp-30834,SrSn3Pd,"Pd, Sn, Sr",3,0.0,Tetragonal,107,I4mm,0.0,False,True
mp-30269,HfGa2Ni,"Ga, Hf, Ni",3,0.0,Tetragonal,107,I4mm,0.0,False,True
mp-1216602,Tl2Pd9Pb,"Pb, Pd, Tl",3,0.009856629166669961,Tetragonal,107,I4mm,0.0,True,True
mp-1227967,BaGa3Sn,"Ba, Ga, Sn",3,0.019365479500000227,Tetragonal,107,I4mm,0.0,True,True
mp-1068048,BaSn3Au,"Au, Ba, Sn",3,0.0,Tetragonal,107,I4mm,0.0,False,True
mp-1069603,LaAl3Au,"Al, Au, La",3,0.0,Tetragonal,107,I4mm,0.0,False,True
mp-1215181,ZrTiCu,"Cu, Ti, Zr",3,0.01745571666666912,Tetragonal,107,I4mm,0.0,True,True
mp-1217777,SrZnIn3,"In, Sr, Zn",3,0.0,Tetragonal,107,I4mm,0.0,True,True
mp-11879,BaNiSn3,"Ba, Ni, Sn",3,0.0,Tetragonal,107,I4mm,0.0,False,True
mp-1070573,LaAl3Cu,"Al, Cu, La",3,0.0,Tetragonal,107,I4mm,0.0,False,True
mp-11269,BaSn3Pd,"Ba, Pd, Sn",3,0.0,Tetragonal,107,I4mm,0.0,False,True
mp-1226791,CaAl3Au,"Al, Au, Ca",3,0.0,Tetragonal,107,I4mm,0.0,True,True
mp-21660,HfGa2Co,"Co, Ga, Hf",3,0.0,Tetragonal,107,I4mm,0.0,False,True
mp-1218236,SrIn3Au,"Au, In, Sr",3,0.0,Tetragonal,107,I4mm,0.0,True,True
mp-1227072,CaGa3Pt,"Ca, Ga, Pt",3,0.0,Tetragonal,107,I4mm,0.0,True,True
mp-1218359,SrAl3Ag,"Ag, Al, Sr",3,0.0,Tetragonal,107,I4mm,0.0,True,True
mp-1227995,BaIn3Pt,"Ba, In, Pt",3,0.002311426500001712,Tetragonal,107,I4mm,0.0,True,True
mp-1228096,K4Cu4Sn7,"Cu, K, Sn",3,0.0,Tetragonal,111,P-42m,0.7216,True,False
mp-1218786,Sr2Mg3In5,"In, Mg, Sr",3,0.01724783999999957,Tetragonal,115,P-4m2,0.0,True,True
mp-1228403,Ba2Ga7Ag,"Ag, Ba, Ga",3,0.008028120333336553,Tetragonal,115,P-4m2,0.0,True,True
mp-1223052,La2ZnBi4,"Bi, La, Zn",3,0.0,Tetragonal,115,P-4m2,0.0,True,True
mp-1220675,Nb2(AlGa)3,"Al, Ga, Nb",3,0.009516227500000696,Tetragonal,115,P-4m2,0.0,True,True
mp-1227351,Ca2Ga7Ag,"Ag, Ca, Ga",3,0.0,Tetragonal,115,P-4m2,0.0,True,True
mp-1223437,La2Ga7Co,"Co, Ga, La",3,0.053426811999996104,Tetragonal,115,P-4m2,0.0,True,True
mp-1223339,La2Ga5Cu3,"Cu, Ga, La",3,0.002513400000015764,Tetragonal,115,P-4m2,0.0,True,True
mp-1218558,Sr4Sn9Au7,"Au, Sn, Sr",3,0.010807606750005139,Tetragonal,115,P-4m2,0.0,True,True
mp-1223453,La2Ga5Au3,"Au, Ga, La",3,0.027713350437953643,Tetragonal,115,P-4m2,0.0,True,True
mp-1215365,Zr5AlNi4,"Al, Ni, Zr",3,0.05074680850000313,Tetragonal,118,P-4n2,0.0,True,True
mp-571443,SrMgIn3,"In, Mg, Sr",3,0.0,Tetragonal,119,I-4m2,0.0,False,True
mp-1222026,Mn2GaNi,"Ga, Mn, Ni",3,0.0848165949999995,Tetragonal,119,I-4m2,0.0,True,True
mp-1223040,LaGa3Ni,"Ga, La, Ni",3,0.03819668966666967,Tetragonal,119,I-4m2,0.0,True,True
mp-1227390,BaTlIn3,"Ba, In, Tl",3,0.012278902500000743,Tetragonal,119,I-4m2,0.0,True,True
mp-1215945,YGa3Cu,"Cu, Ga, Y",3,0.013742773100000605,Tetragonal,119,I-4m2,0.0,True,True
mp-1218230,SrInAu5,"Au, In, Sr",3,0.0,Tetragonal,119,I-4m2,0.0,True,True
mp-1227881,BaMgIn3,"Ba, In, Mg",3,0.0,Tetragonal,119,I-4m2,0.0,True,True
mp-1222853,LaGa3Cu,"Cu, Ga, La",3,0.0,Tetragonal,119,I-4m2,0.0,True,True
mp-1222842,LaGa3Pd,"Ga, La, Pd",3,0.0,Tetragonal,119,I-4m2,0.0,True,True
mp-1222794,LaGa3Pt,"Ga, La, Pt",3,0.0,Tetragonal,119,I-4m2,0.0,True,True
mp-1215933,YAl3Ag,"Ag, Al, Y",3,0.00486114486666267,Tetragonal,119,I-4m2,0.0,True,True
mp-30402,K(SnAu2)2,"Au, K, Sn",3,0.011057364857141927,Tetragonal,120,I-4c2,0.0,False,True
mp-1195947,K23(Sn3Au4)3,"Au, K, Sn",3,0.0,Tetragonal,121,I-42m,0.0,False,True
mp-639910,Y(Sn3Ru2)2,"Ru, Sn, Y",3,0.0,Tetragonal,121,I-42m,0.0,False,True
mp-1206665,La(Sn3Ru2)2,"La, Ru, Sn",3,0.0,Tetragonal,121,I-42m,0.0,True,True
mp-571599,Ba(BiPd)2,"Ba, Bi, Pd",3,0.0,Monoclinic,11,P2_1/m,0.0,False,True
mp-1080049,Sr(ZnSn)2,"Sn, Sr, Zn",3,0.0,Monoclinic,11,P2_1/m,0.0,False,True
mp-1199411,La3(GaRu)2,"Ga, La, Ru",3,0.0,Monoclinic,11,P2_1/m,0.0,False,True
mp-567114,Sr(BiPd)2,"Bi, Pd, Sr",3,0.0,Monoclinic,11,P2_1/m,0.0,False,True
mp-1223139,La4BiPb2,"Bi, La, Pb",3,0.0034080561904721307,Tetragonal,122,I-42d,0.0,True,True
mp-1223111,La4Bi2Pb,"Bi, La, Pb",3,0.005964323809522831,Tetragonal,122,I-42d,0.0,True,True
mp-1223150,La4SnBi2,"Bi, La, Sn",3,0.0019154035714299411,Tetragonal,122,I-42d,0.0,True,True
mp-1213732,CrSn4Au,"Au, Cr, Sn",3,0.0667095831250002,Tetragonal,124,P4/mcc,0.0,True,True
mp-1221656,MnAl2Ni,"Al, Mn, Ni",3,0.0,Tetragonal,123,P4/mmm,0.0,True,True
mp-1216906,TiInPd2,"In, Pd, Ti",3,0.02645577750000072,Tetragonal,123,P4/mmm,0.0,True,True
mp-1224169,HfTiRu2,"Hf, Ru, Ti",3,0.03254705500000199,Tetragonal,123,P4/mmm,0.0,True,True
mp-1221728,MnCrPt6,"Cr, Mn, Pt",3,0.008186998749998509,Tetragonal,123,P4/mmm,0.0,True,True
mp-1217016,TiAlCo2,"Al, Co, Ti",3,0.08672172499999853,Tetragonal,123,P4/mmm,0.0,True,True
mp-1063566,MgSc2Ru,"Mg, Ru, Sc",3,0.0,Tetragonal,123,P4/mmm,0.0,False,True
mp-1221660,MnAl2Cu,"Al, Cu, Mn",3,0.004662129930553149,Tetragonal,123,P4/mmm,0.0,True,True
mp-1215216,ZrNbAl6,"Al, Nb, Zr",3,0.023704568750000377,Tetragonal,123,P4/mmm,0.0,True,True
mp-1206867,Sc2Ga8Co,"Co, Ga, Sc",3,0.0010929618181751977,Tetragonal,123,P4/mmm,0.0,True,True
mp-1224798,Ga2CoNi,"Co, Ga, Ni",3,0.02207934226190389,Tetragonal,123,P4/mmm,0.0,True,True
mp-1228540,Al2VNi9,"Al, Ni, V",3,0.0,Tetragonal,123,P4/mmm,0.0,True,True
mp-1101092,Y2In8Co,"Co, In, Y",3,0.012039540606059163,Tetragonal,123,P4/mmm,0.0,False,True
mp-20551,GaCo2Ni,"Co, Ga, Ni",3,0.07967344884615457,Tetragonal,123,P4/mmm,0.0,False,True
mp-1220329,NbAl6Mo,"Al, Mo, Nb",3,0.02669873750000029,Tetragonal,123,P4/mmm,0.0,True,True
mp-1217044,TiAlNi6,"Al, Ni, Ti",3,0.0,Tetragonal,123,P4/mmm,0.0,True,True
mp-1221548,MnTlRh2,"Mn, Rh, Tl",3,0.057016824166666424,Tetragonal,123,P4/mmm,0.0,True,True
mp-1226004,CoNiPt2,"Co, Ni, Pt",3,0.0,Tetragonal,123,P4/mmm,0.0,True,True
mp-1222139,Mg4CdAg5,"Ag, Cd, Mg",3,0.0,Tetragonal,123,P4/mmm,0.0,True,True
mp-1018799,MgSc3Ru2,"Mg, Ru, Sc",3,0.0,Tetragonal,123,P4/mmm,0.0,False,True
mp-1217071,Ti2CuNi,"Cu, Ni, Ti",3,0.07055507499999969,Tetragonal,123,P4/mmm,0.0,True,True
mp-21479,LaIn5Rh,"In, La, Rh",3,0.0,Tetragonal,123,P4/mmm,0.0,False,True
mp-1217893,TaNbAl6,"Al, Nb, Ta",3,0.0,Tetragonal,123,P4/mmm,0.0,True,True
mp-1224173,HfZn2Ga,"Ga, Hf, Zn",3,0.0,Tetragonal,123,P4/mmm,0.0,True,True
mp-1217015,TiAl2V,"Al, Ti, V",3,0.023320597916669072,Tetragonal,123,P4/mmm,0.0,True,True
mp-1218140,TaAl4Ni15,"Al, Ni, Ta",3,0.005408968499999389,Tetragonal,123,P4/mmm,0.0,True,True
mp-639659,InCuPt2,"Cu, In, Pt",3,0.0,Tetragonal,123,P4/mmm,0.0,False,True
mp-1207127,CuSnPd2,"Cu, Pd, Sn",3,0.06613828374999997,Tetragonal,123,P4/mmm,0.0,True,True
mp-1224993,FeCoPt2,"Co, Fe, Pt",3,0.04885977208333525,Tetragonal,123,P4/mmm,0.0,True,True
mp-1025229,TiGa5Co,"Co, Ga, Ti",3,0.009694247500000586,Tetragonal,123,P4/mmm,0.0,True,True
mp-1222424,Li3Tl2Cd,"Cd, Li, Tl",3,0.0,Tetragonal,123,P4/mmm,0.0,True,True
mp-1218003,TaAl2Ni9,"Al, Ni, Ta",3,0.0,Tetragonal,123,P4/mmm,0.0,True,True
mp-1224331,Hf4AgPd,"Ag, Hf, Pd",3,0.0020798783333333404,Tetragonal,123,P4/mmm,0.0,True,True
mp-1215438,Zn2CuNi,"Cu, Ni, Zn",3,0.009078507499999944,Tetragonal,123,P4/mmm,0.0,True,True
mp-570863,CrCoPt2,"Co, Cr, Pt",3,0.03671428916666919,Tetragonal,123,P4/mmm,0.0,False,True
mp-1228905,Al2FeCo,"Al, Co, Fe",3,0.00044176249999949846,Tetragonal,123,P4/mmm,0.0,True,True
mp-1217022,TiAlAu2,"Al, Au, Ti",3,0.042965133124997834,Tetragonal,123,P4/mmm,0.0,True,True
mp-20911,LaIn5Ir,"In, Ir, La",3,0.0,Tetragonal,123,P4/mmm,0.0,False,True
mp-1217285,TiAl4Ni15,"Al, Ni, Ti",3,0.006356241499999804,Tetragonal,123,P4/mmm,0.0,True,True
mp-1215460,Zn2AgAu,"Ag, Au, Zn",3,0.024396187499998945,Tetragonal,123,P4/mmm,0.0,True,True
mp-1228973,Al3ZnCr8,"Al, Cr, Zn",3,0.016436879999998766,Tetragonal,123,P4/mmm,0.0,True,True
mp-1217891,TaTiAl6,"Al, Ta, Ti",3,0.0,Tetragonal,123,P4/mmm,0.0,True,True
mp-1222616,Li2TlHg,"Hg, Li, Tl",3,0.0,Tetragonal,123,P4/mmm,0.0,True,True
mp-1216351,VGaNi6,"Ga, Ni, V",3,0.0,Tetragonal,123,P4/mmm,0.0,True,True
mp-1220476,NbAl2Ni9,"Al, Nb, Ni",3,0.0,Tetragonal,123,P4/mmm,0.0,True,True
mp-1025176,HfGa5Ni,"Ga, Hf, Ni",3,0.026785833142852766,Tetragonal,123,P4/mmm,0.0,False,True
mp-1217921,TaGaNi6,"Ga, Ni, Ta",3,0.0,Tetragonal,123,P4/mmm,0.0,True,True
mp-1228186,Al4Ni3Pt,"Al, Ni, Pt",3,0.034728817187500205,Tetragonal,123,P4/mmm,0.0,True,True
mp-1215496,ZnCdAg2,"Ag, Cd, Zn",3,0.0,Tetragonal,123,P4/mmm,0.0,True,True
mp-1228135,Al5CuMo2,"Al, Cu, Mo",3,0.03185007267361151,Tetragonal,123,P4/mmm,0.0,True,True
mp-1208235,Ti4(NbAl3)3,"Al, Nb, Ti",3,0.04342175805000181,Tetragonal,123,P4/mmm,0.0,True,True
mp-1228906,AlCrFe2,"Al, Cr, Fe",3,0.02413916124999904,Tetragonal,123,P4/mmm,0.0,True,True
mp-1222110,MnGa2Ni9,"Ga, Mn, Ni",3,0.007107115833335342,Tetragonal,123,P4/mmm,0.0,True,True
mp-1217098,Ti4CuAg,"Ag, Cu, Ti",3,0.0,Tetragonal,123,P4/mmm,0.0,True,True
mp-1221572,MnInRh2,"In, Mn, Rh",3,0.02662982500000055,Tetragonal,123,P4/mmm,0.0,True,True
mp-1228554,Al2Ni9Pd,"Al, Ni, Pd",3,0.05333080145833158,Tetragonal,123,P4/mmm,0.0,True,True
mp-1215228,ZrTi4Be5,"Be, Ti, Zr",3,0.021402921249999984,Tetragonal,123,P4/mmm,0.0,True,True
mp-1215336,ZrAl6Mo,"Al, Mo, Zr",3,0.02366922125000137,Tetragonal,123,P4/mmm,0.0,True,True
mp-1224791,GaNi2Pt,"Ga, Ni, Pt",3,0.0,Tetragonal,123,P4/mmm,0.0,True,True
mp-644280,GaCuPt2,"Cu, Ga, Pt",3,0.0,Tetragonal,123,P4/mmm,0.0,False,True
mp-1224944,GaCu4Ni15,"Cu, Ga, Ni",3,0.030587893000001642,Tetragonal,123,P4/mmm,0.0,True,True
mp-1217070,Ti2RePt,"Pt, Re, Ti",3,0.0,Tetragonal,123,P4/mmm,0.0,True,True
mp-1221982,MgZn4Ag5,"Ag, Mg, Zn",3,0.01030432626922817,Tetragonal,123,P4/mmm,0.28140000000000054,True,False
mp-1208973,Sc2Ga8Ni,"Ga, Ni, Sc",3,0.0026552854545451865,Tetragonal,123,P4/mmm,0.0,True,True
mp-3702,FeCuPt2,"Cu, Fe, Pt",3,0.01835553999999817,Tetragonal,123,P4/mmm,0.0,False,True
mp-1221702,MnAlRh2,"Al, Mn, Rh",3,0.030438072500000857,Tetragonal,123,P4/mmm,0.0,True,True
mp-1229119,Al(Ni4Pt)3,"Al, Ni, Pt",3,0.027030415000000474,Tetragonal,123,P4/mmm,0.0,True,True
mp-1228938,AlCuNi6,"Al, Cu, Ni",3,0.028141036250000084,Tetragonal,123,P4/mmm,0.0,True,True
mp-30493,ZnCdPt2,"Cd, Pt, Zn",3,0.0,Tetragonal,123,P4/mmm,0.0,False,True
mp-1228972,AlCoNi6,"Al, Co, Ni",3,0.01928601062500057,Tetragonal,123,P4/mmm,0.0,True,True
mp-1224968,FeNiPt2,"Fe, Ni, Pt",3,0.06326468250000161,Tetragonal,123,P4/mmm,0.0,True,True
mp-1217017,TiAl6Mo,"Al, Mo, Ti",3,0.0,Tetragonal,123,P4/mmm,0.0,True,True
mp-1217067,Ti2ReOs,"Os, Re, Ti",3,0.00021068999999585003,Tetragonal,123,P4/mmm,0.0,True,True
mp-1215448,Zn2PdAu,"Au, Pd, Zn",3,0.006532567500000752,Tetragonal,123,P4/mmm,0.0,True,True
mp-1213092,CuSnPd2,"Cu, Pd, Sn",3,0.055351248124999586,Tetragonal,123,P4/mmm,0.0,True,True
mp-1216661,TiZnCu2,"Cu, Ti, Zn",3,0.08920452499999953,Tetragonal,123,P4/mmm,0.0,True,True
mp-1224303,HfAl2Zn,"Al, Hf, Zn",3,0.0,Tetragonal,123,P4/mmm,0.0,True,True
mp-1223211,La2MgAl,"Al, La, Mg",3,0.02373983312500183,Tetragonal,123,P4/mmm,0.0,True,True
mp-30919,LaGa6Pd,"Ga, La, Pd",3,0.0,Tetragonal,123,P4/mmm,0.0,False,True
mp-1228913,Al2CoNi,"Al, Co, Ni",3,0.0,Tetragonal,123,P4/mmm,0.0,True,True
mp-1025375,YGa5Co,"Co, Ga, Y",3,0.0,Tetragonal,123,P4/mmm,0.0,False,True
mp-1222144,Mg2AgPd,"Ag, Mg, Pd",3,0.0,Tetragonal,123,P4/mmm,0.0,True,True
mp-30593,ZnCu2Ni,"Cu, Ni, Zn",3,0.005059939999999763,Tetragonal,123,P4/mmm,0.0,False,True
mp-1025241,ScGa5Fe,"Fe, Ga, Sc",3,0.005272000214284311,Tetragonal,123,P4/mmm,0.0,True,True
mp-1025242,ScGa5Co,"Co, Ga, Sc",3,0.0,Tetragonal,123,P4/mmm,0.0,True,True
mp-1216894,TiCuNi2,"Cu, Ni, Ti",3,0.08219570093750139,Tetragonal,123,P4/mmm,0.0,True,True
mp-1224940,Ga3Ni12Sn,"Ga, Ni, Sn",3,0.00707332968749963,Tetragonal,123,P4/mmm,0.0,True,True
mp-1066921,MnGaNi2,"Ga, Mn, Ni",3,0.028548952499999558,Tetragonal,123,P4/mmm,0.0,True,True
mp-1224309,HfGa2Ag,"Ag, Ga, Hf",3,0.05206853770833675,Tetragonal,123,P4/mmm,0.0,True,True
mp-1224529,HfInNi2,"Hf, In, Ni",3,0.07799076062096688,Tetragonal,123,P4/mmm,0.0,True,True
mp-1224492,HfInPd2,"Hf, In, Pd",3,0.03793851749999888,Tetragonal,123,P4/mmm,0.0,True,True
mp-12550,AlCuPt2,"Al, Cu, Pt",3,0.0,Tetragonal,123,P4/mmm,0.0,False,True
mp-1221948,MnGaIr2,"Ga, Ir, Mn",3,0.044557712499998736,Tetragonal,123,P4/mmm,0.0,True,True
mp-1224456,HfInPt2,"Hf, In, Pt",3,0.06577728984375142,Tetragonal,123,P4/mmm,0.0,True,True
mp-1191866,Y4Ga16Co3,"Co, Ga, Y",3,0.001833115289861631,Tetragonal,123,P4/mmm,0.0,False,True
mp-11300,TiCdHg2,"Cd, Hg, Ti",3,0.08908033250000358,Tetragonal,123,P4/mmm,0.0,False,True
mp-1216876,TiGaNi6,"Ga, Ni, Ti",3,0.0,Tetragonal,123,P4/mmm,0.0,True,True
mp-1207090,CuSnPd2,"Cu, Pd, Sn",3,0.03723896124999726,Tetragonal,123,P4/mmm,0.0,True,True
mp-1228126,Al5CuW2,"Al, Cu, W",3,0.005097319499999031,Tetragonal,123,P4/mmm,0.0,True,True
mp-1228921,Al3Ni2Pt,"Al, Ni, Pt",3,0.046795699583331185,Tetragonal,123,P4/mmm,0.0,True,True
mp-1221932,MgZnAg2,"Ag, Mg, Zn",3,0.021398320000000748,Tetragonal,123,P4/mmm,0.0,True,True
mp-1223230,La2AlZn,"Al, La, Zn",3,0.02369561187499869,Tetragonal,123,P4/mmm,0.0,True,True
mp-1228861,AlNi6Pd,"Al, Ni, Pd",3,0.0795937321874991,Tetragonal,123,P4/mmm,0.0,True,True
mp-1078010,YIn5Co,"Co, In, Y",3,0.01908404380952078,Tetragonal,123,P4/mmm,0.0,False,True
mp-1206242,YIn5Rh,"In, Rh, Y",3,0.0,Tetragonal,123,P4/mmm,0.0,True,True
mp-1025313,TiGa5Ni,"Ga, Ni, Ti",3,0.04536378599999402,Tetragonal,123,P4/mmm,0.0,True,True
mp-1218699,SrCaPb6,"Ca, Pb, Sr",3,0.0,Tetragonal,123,P4/mmm,0.0,True,True
mp-1217224,Ti4Co5Ni,"Co, Ni, Ti",3,0.07377126191666772,Tetragonal,123,P4/mmm,0.0,True,True
mp-1222137,Mg3HgAu2,"Au, Hg, Mg",3,0.000900818333334108,Tetragonal,123,P4/mmm,0.0,True,True
mp-1216640,TiZnGa2,"Ga, Ti, Zn",3,0.0,Tetragonal,123,P4/mmm,0.0,True,True
mp-1221704,MnCoPt2,"Co, Mn, Pt",3,0.08457569499999984,Tetragonal,123,P4/mmm,0.0,True,True
mp-1221696,MnFePd6,"Fe, Mn, Pd",3,0.0,Tetragonal,123,P4/mmm,0.0,True,True
mp-1221683,Mn6PtRh,"Mn, Pt, Rh",3,0.0,Tetragonal,123,P4/mmm,0.0,True,True
mp-1228460,Al4Ni15Sn,"Al, Ni, Sn",3,0.009885515749997964,Tetragonal,123,P4/mmm,0.0,True,True
mp-21414,LaIn5Co,"Co, In, La",3,0.006022455238089641,Tetragonal,123,P4/mmm,0.0,False,True
mp-1215344,Zr8AgPd3,"Ag, Pd, Zr",3,0.0,Tetragonal,123,P4/mmm,0.0,True,True
mp-1217065,Ti8Cu3Ni,"Cu, Ni, Ti",3,0.0,Tetragonal,123,P4/mmm,0.0,True,True
mp-1224867,Ga2FeCo,"Co, Fe, Ga",3,0.06549027531249951,Tetragonal,123,P4/mmm,0.0,True,True
mp-1023366,CaYMg6,"Ca, Mg, Y",3,0.03730655124999949,Tetragonal,123,P4/mmm,0.0,True,True
mp-1218397,Sr5ZnCd4,"Cd, Sr, Zn",3,0.0024656122499981947,Tetragonal,123,P4/mmm,0.0,True,True
mp-1224540,Hf(GaNi4)3,"Ga, Hf, Ni",3,0.0009052969999991944,Tetragonal,123,P4/mmm,0.0,True,True
mp-1025355,ZrGa5Co,"Co, Ga, Zr",3,0.0,Tetragonal,123,P4/mmm,0.0,True,True
mp-1215360,Zr5Co4Ni,"Co, Ni, Zr",3,0.036108173999997994,Tetragonal,123,P4/mmm,0.0,True,True
mp-1216945,TiInPt2,"In, Pt, Ti",3,0.0728919053124999,Tetragonal,123,P4/mmm,0.0,True,True
mp-1227630,Ca2TlCd,"Ca, Cd, Tl",3,0.0054022474999975145,Tetragonal,123,P4/mmm,0.0,True,True
mp-1065753,MnGaFe2,"Fe, Ga, Mn",3,0.03753024028286589,Tetragonal,123,P4/mmm,0.0,True,True
mp-1217020,TiAlFe2,"Al, Fe, Ti",3,0.05688651750000062,Tetragonal,123,P4/mmm,0.0,True,True
mp-1215299,ZrInPt2,"In, Pt, Zr",3,0.08579489556817776,Tetragonal,123,P4/mmm,0.0,True,True
mp-1215329,ZrAl2Zn,"Al, Zn, Zr",3,0.0,Tetragonal,123,P4/mmm,0.0,True,True
mp-1222965,LaYIn6,"In, La, Y",3,0.0,Tetragonal,123,P4/mmm,0.0,True,True
mp-1188501,Mn3Ga4Ni9,"Ga, Mn, Ni",3,0.012845498749998185,Tetragonal,123,P4/mmm,0.0,True,True
mp-1217078,Ti2CoNi,"Co, Ni, Ti",3,0.030916730000000392,Tetragonal,123,P4/mmm,0.0,True,True
mp-1025191,ScGa5Ni,"Ga, Ni, Sc",3,0.0,Tetragonal,123,P4/mmm,0.0,True,True
mp-1221642,MnAl2Co,"Al, Co, Mn",3,0.005151139999999721,Tetragonal,123,P4/mmm,0.0,True,True
mp-1219262,ScInPd2,"In, Pd, Sc",3,0.07616961499999775,Tetragonal,123,P4/mmm,0.0,True,True
mp-1103036,Y2Ga8Co,"Co, Ga, Y",3,0.027284134090913348,Tetragonal,123,P4/mmm,0.0,False,True
mp-1221720,MnAlIr2,"Al, Ir, Mn",3,0.043884282499996985,Tetragonal,123,P4/mmm,0.0,True,True
mp-1217040,TiAlPd2,"Al, Pd, Ti",3,0.030355374999999185,Tetragonal,123,P4/mmm,0.0,True,True
mp-1217009,TiAl2Zn,"Al, Ti, Zn",3,0.0,Tetragonal,123,P4/mmm,0.0,True,True
mp-1228908,Al2CoRu,"Al, Co, Ru",3,0.031180757500001377,Tetragonal,123,P4/mmm,0.0,True,True
mp-1224981,FeCuPt2,"Cu, Fe, Pt",3,0.01474317249999757,Tetragonal,123,P4/mmm,0.0,True,True
mp-1227698,Ca2TlIn,"Ca, In, Tl",3,0.014311585000001514,Tetragonal,123,P4/mmm,0.0,True,True
mp-1227313,BiPd6Pb,"Bi, Pb, Pd",3,0.010574044687503559,Tetragonal,123,P4/mmm,0.0,True,True
mp-1217096,Ti2FeCu,"Cu, Fe, Ti",3,0.06404662249999937,Tetragonal,123,P4/mmm,0.0,True,True
mp-1228426,Al2NiPt,"Al, Ni, Pt",3,0.05745528937500044,Tetragonal,123,P4/mmm,0.0,True,True
mp-1221985,MgCdAg2,"Ag, Cd, Mg",3,0.015952394999999342,Tetragonal,123,P4/mmm,0.0,True,True
mp-1221549,MnSnPd2,"Mn, Pd, Sn",3,0.09741847249999935,Tetragonal,123,P4/mmm,0.0,True,True
mp-1215524,ZnCdAu2,"Au, Cd, Zn",3,0.0,Tetragonal,123,P4/mmm,0.0,True,True
mp-1228912,AlCuPd2,"Al, Cu, Pd",3,0.020547323749998014,Tetragonal,123,P4/mmm,0.0,True,True
mp-1217087,Ti2AlCr,"Al, Cr, Ti",3,0.05139959812500017,Tetragonal,123,P4/mmm,0.0,True,True
mp-1225771,Cu3PdAu4,"Au, Cu, Pd",3,0.004505141875002394,Tetragonal,123,P4/mmm,0.0,True,True
mp-1216005,YAgSn2,"Ag, Sn, Y",3,0.01086261968749902,Tetragonal,123,P4/mmm,0.0,True,True
mp-1065359,GaFeNi2,"Fe, Ga, Ni",3,0.06461974666666759,Tetragonal,123,P4/mmm,0.0,True,True
mp-1221740,MnAlNi6,"Al, Mn, Ni",3,0.01832406374999973,Tetragonal,123,P4/mmm,0.0,True,True
mp-1224702,Fe2PtRh,"Fe, Pt, Rh",3,0.07837099750000043,Tetragonal,123,P4/mmm,0.0,True,True
mp-13463,FeNiPt2,"Fe, Ni, Pt",3,0.0,Tetragonal,123,P4/mmm,0.0,False,True
mp-1228840,AlVNi2,"Al, Ni, V",3,0.053133904895833695,Tetragonal,123,P4/mmm,0.0,True,True
mp-1228816,AlVFe2,"Al, Fe, V",3,0.047482470000000276,Tetragonal,123,P4/mmm,0.0,True,True
mp-1224947,FeNiPt6,"Fe, Ni, Pt",3,0.0,Tetragonal,123,P4/mmm,0.0,True,True
mp-1222004,MgSc5Al4,"Al, Mg, Sc",3,0.012943470999999818,Tetragonal,123,P4/mmm,0.0,True,True
mp-1228918,AlGaNi6,"Al, Ga, Ni",3,0.0,Tetragonal,123,P4/mmm,0.0,True,True
mp-1022804,SrYMg6,"Mg, Sr, Y",3,0.07392832812499961,Tetragonal,123,P4/mmm,0.0,True,True
mp-1221718,MnAlPd2,"Al, Mn, Pd",3,0.058333351767240416,Tetragonal,123,P4/mmm,0.0,True,True
mp-1224506,Hf(AlNi4)3,"Al, Hf, Ni",3,0.0036063269999999648,Tetragonal,123,P4/mmm,0.0,True,True