material_id,formula,elements,num_elements,energy_above_hull,crystal_system,spacegroup_number,spacegroup_symbol,band_gap,theoretical,is_metal,electronegativity_difference,atomic_concentrations
mp-1102840,YAlAu,"Al, Au, Y",3,0.0,Orthorhombic,62,Pnma,0.0,False,True,0.5537147279962852,Y: 0.3333; Al: 0.3333; Au: 0.3333
mp-1103280,YGaIr,"Ga, Ir, Y",3,0.0,Orthorhombic,62,Pnma,0.0,False,True,0.4028509512076259,Y: 0.3333; Ga: 0.3333; Ir: 0.3333
mp-1210366,Y3Ga15Ru4,"Ga, Ru, Y",3,0.00462047636363927,Orthorhombic,62,Pnma,0.0,True,True,0.27391898723938063,Y: 0.1364; Ga: 0.6818; Ru: 0.1818
mp-1102184,ScGaPt,"Ga, Pt, Sc",3,0.0,Orthorhombic,62,Pnma,0.0,False,True,0.3756180092712393,Sc: 0.3333; Ga: 0.3333; Pt: 0.3333
mp-1095491,YCoSn,"Co, Sn, Y",3,0.0158042191666663,Orthorhombic,62,Pnma,0.0,False,True,0.33159546974522364,Y: 0.3333; Co: 0.3333; Sn: 0.3333
mp-31295,La3(Sn3Pd2)2,"La, Pd, Sn",3,0.0,Orthorhombic,62,Pnma,0.0,False,True,0.4720632902482462,La: 0.3750; Sn: 0.3750; Pd: 0.2500
mp-1101849,YGaPd,"Ga, Pd, Y",3,0.0,Orthorhombic,62,Pnma,0.0,False,True,0.4028509512076259,Y: 0.3333; Ga: 0.3333; Pd: 0.3333
mp-29561,CaSnAu,"Au, Ca, Sn",3,0.0,Orthorhombic,62,Pnma,0.0,False,True,0.6350503042191924,Ca: 0.3333; Sn: 0.3333; Au: 0.3333
mp-1095464,YAlPd,"Al, Pd, Y",3,0.0,Orthorhombic,62,Pnma,0.0,False,True,0.4028509512076258,Y: 0.3333; Al: 0.3333; Pd: 0.3333
mp-1102603,YGaNi,"Ga, Ni, Y",3,0.0,Orthorhombic,62,Pnma,0.0,False,True,0.3044484995674784,Y: 0.3333; Ga: 0.3333; Ni: 0.3333
mp-20001,SrSnPt,"Pt, Sn, Sr",3,0.0,Orthorhombic,62,Pnma,0.0,False,True,0.5668039049500864,Sr: 0.3333; Sn: 0.3333; Pt: 0.3333
mp-1095476,LaSnPd,"La, Pd, Sn",3,0.019223651944442643,Orthorhombic,62,Pnma,0.0,False,True,0.4722522866246623,La: 0.3333; Sn: 0.3333; Pd: 0.3333
mp-1095587,LaGaPt,"Ga, La, Pt",3,0.0,Orthorhombic,62,Pnma,0.0,False,True,0.48504295342440196,La: 0.3333; Ga: 0.3333; Pt: 0.3333
mp-21981,YNiSn2,"Ni, Sn, Y",3,0.0,Orthorhombic,62,Pnma,0.0,False,True,0.3138769663419092,Y: 0.2500; Ni: 0.2500; Sn: 0.5000
mp-11265,BaCaSn,"Ba, Ca, Sn",3,0.0,Orthorhombic,62,Pnma,0.24370000000000003,False,False,0.48057835527159926,Ba: 0.3333; Ca: 0.3333; Sn: 0.3333
mp-1095628,YSnPd,"Pd, Sn, Y",3,0.0,Orthorhombic,62,Pnma,0.0,False,True,0.4170797951897881,Y: 0.3333; Sn: 0.3333; Pd: 0.3333
mp-31071,Ba2Tl7Au,"Au, Ba, Tl",3,0.0031806469166655305,Orthorhombic,62,Pnma,0.0,False,True,0.4339400880305944,Ba: 0.2000; Tl: 0.7000; Au: 0.1000
mp-1103033,SrMgPt,"Mg, Pt, Sr",3,0.0,Orthorhombic,62,Pnma,0.0,False,True,0.5616839759944099,Sr: 0.3333; Mg: 0.3333; Pt: 0.3333
mp-1101867,ZrCuSn,"Cu, Sn, Zr",3,0.0,Orthorhombic,62,Pnma,0.0,False,True,0.2839013913315677,Zr: 0.3333; Cu: 0.3333; Sn: 0.3333
mp-22617,YNiSn,"Ni, Sn, Y",3,0.0,Orthorhombic,62,Pnma,0.0,False,True,0.3376717669901086,Y: 0.3333; Ni: 0.3333; Sn: 0.3333
mp-1102040,CaSnPt,"Ca, Pt, Sn",3,0.0,Orthorhombic,62,Pnma,0.0,False,True,0.5438954147832302,Ca: 0.3333; Sn: 0.3333; Pt: 0.3333
mp-1101774,YSnIr,"Ir, Sn, Y",3,0.0,Orthorhombic,62,Pnma,0.0,False,True,0.4170797951897881,Y: 0.3333; Sn: 0.3333; Ir: 0.3333
mp-22284,SrInPt,"In, Pt, Sr",3,0.0,Orthorhombic,62,Pnma,0.0,False,True,0.548513141744723,Sr: 0.3333; In: 0.3333; Pt: 0.3333
mp-1103046,CaCdPt,"Ca, Cd, Pt",3,0.0,Orthorhombic,62,Pnma,0.0,False,True,0.5230891149911476,Ca: 0.3333; Cd: 0.3333; Pt: 0.3333
mp-4864,CaMgSn,"Ca, Mg, Sn",3,0.0,Orthorhombic,62,Pnma,0.0,False,True,0.40002777681333856,Ca: 0.3333; Mg: 0.3333; Sn: 0.3333
mp-620571,CaInPd,"Ca, In, Pd",3,0.0,Orthorhombic,62,Pnma,0.0,False,True,0.4971921157862422,Ca: 0.3333; In: 0.3333; Pd: 0.3333
mp-607230,Ca3Ga3Rh2,"Ca, Ga, Rh",3,0.0,Orthorhombic,62,Pnma,0.0,False,True,0.516307502850772,Ca: 0.3750; Ga: 0.3750; Rh: 0.2500
mp-570525,LaZnRh,"La, Rh, Zn",3,0.0,Orthorhombic,62,Pnma,0.0,False,True,0.4821018795049674,La: 0.3333; Zn: 0.3333; Rh: 0.3333
mp-1102073,SrCdPt,"Cd, Pt, Sr",3,0.0,Orthorhombic,62,Pnma,0.0,False,True,0.5441200847852122,Sr: 0.3333; Cd: 0.3333; Pt: 0.3333
mp-2647077,NaCdBi,"Bi, Cd, Na",3,0.0,Orthorhombic,62,Pnma,0.0,True,True,0.4563867755411947,Na: 0.3333; Cd: 0.3333; Bi: 0.3333
mp-569186,LaMgRh,"La, Mg, Rh",3,0.0,Orthorhombic,62,Pnma,0.0,False,True,0.5139606556493944,La: 0.3333; Mg: 0.3333; Rh: 0.3333
mp-1189429,LaGaPd2,"Ga, La, Pd",3,0.0,Orthorhombic,62,Pnma,0.0,False,True,0.4491867651656714,La: 0.2500; Ga: 0.2500; Pd: 0.5000
mp-1200384,Hf3(VGa2)2,"Ga, Hf, V",3,0.0,Orthorhombic,62,Pnma,0.0,False,True,0.23286262044390035,Hf: 0.5000; V: 0.1667; Ga: 0.3333
mp-3076,LaSnPt,"La, Pt, Sn",3,0.022980189444444576,Orthorhombic,62,Pnma,0.0,False,True,0.49826365176146103,La: 0.3333; Sn: 0.3333; Pt: 0.3333
mp-20220,CaInRh,"Ca, In, Rh",3,0.0,Orthorhombic,62,Pnma,0.0,False,True,0.5267088590694314,Ca: 0.3333; In: 0.3333; Rh: 0.3333
mp-12613,LaNiSn,"La, Ni, Sn",3,0.0,Orthorhombic,62,Pnma,0.0,False,True,0.39415169104743863,La: 0.3333; Ni: 0.3333; Sn: 0.3333
mp-21774,Ca2Sn5Pt3,"Ca, Pt, Sn",3,0.0,Orthorhombic,62,Pnma,0.0,False,True,0.45367830012025034,Ca: 0.2000; Sn: 0.5000; Pt: 0.3000
mp-20726,SrCaSn,"Ca, Sn, Sr",3,0.0,Orthorhombic,62,Pnma,0.2881999999999998,False,False,0.46478190823462806,Sr: 0.3333; Ca: 0.3333; Sn: 0.3333
mp-1102662,CaMgPd,"Ca, Mg, Pd",3,0.0,Orthorhombic,62,Pnma,0.0,False,True,0.5086146762421322,Ca: 0.3333; Mg: 0.3333; Pd: 0.3333
mp-1211543,LaAlRh,"Al, La, Rh",3,0.0,Orthorhombic,62,Pnma,0.0,True,True,0.48320688000988643,La: 0.3333; Al: 0.3333; Rh: 0.3333
mp-568424,CaAlAu,"Al, Au, Ca",3,0.0,Orthorhombic,62,Pnma,0.0,False,True,0.6332105144069826,Ca: 0.3333; Al: 0.3333; Au: 0.3333
mp-22275,YSnPt,"Pt, Sn, Y",3,0.0,Orthorhombic,62,Pnma,0.0,False,True,0.4439219150556397,Y: 0.3333; Sn: 0.3333; Pt: 0.3333
mp-1193123,La(Sn2Rh)2,"La, Rh, Sn",3,0.0,Orthorhombic,62,Pnma,0.0,False,True,0.43849173310337325,La: 0.2500; Sn: 0.5000; Rh: 0.2500
mp-1102631,CaAlPt,"Al, Ca, Pt",3,0.0,Orthorhombic,62,Pnma,0.0,False,True,0.5227491431524939,Ca: 0.3333; Al: 0.3333; Pt: 0.3333
mp-606503,Ca3InAu3,"Au, Ca, In",3,0.0,Orthorhombic,62,Pnma,0.0,False,True,0.712890065085746,Ca: 0.4286; In: 0.1429; Au: 0.4286
mp-1213983,CaBiPd,"Bi, Ca, Pd",3,0.0,Orthorhombic,62,Pnma,0.0,True,True,0.5283937925449164,Ca: 0.3333; Bi: 0.3333; Pd: 0.3333
mp-20378,CaInAu,"Au, Ca, In",3,0.0,Orthorhombic,62,Pnma,0.0,False,True,0.6287200401521243,Ca: 0.3333; In: 0.3333; Au: 0.3333
mp-1207608,YZnRh,"Rh, Y, Zn",3,0.0,Orthorhombic,62,Pnma,0.0,True,True,0.43530321488462365,Y: 0.3333; Zn: 0.3333; Rh: 0.3333
mp-569501,LiCaBi,"Bi, Ca, Li",3,0.0,Orthorhombic,62,Pnma,0.5790000000000002,False,False,0.4856153027059817,Li: 0.3333; Ca: 0.3333; Bi: 0.3333
mp-22529,SrInAu,"Au, In, Sr",3,0.0,Orthorhombic,62,Pnma,0.0,False,True,0.6493244352573082,Sr: 0.3333; In: 0.3333; Au: 0.3333
mp-11253,NaSnAu,"Au, Na, Sn",3,0.0,Orthorhombic,62,Pnma,0.0,False,True,0.6657827473483123,Na: 0.3333; Sn: 0.3333; Au: 0.3333
mp-1105752,CaCd2Pd,"Ca, Cd, Pd",3,0.0,Orthorhombic,62,Pnma,0.0,False,True,0.4266438795998368,Ca: 0.2500; Cd: 0.5000; Pd: 0.2500
mp-1213948,CaZnPd,"Ca, Pd, Zn",3,0.0,Orthorhombic,62,Pnma,0.0,True,True,0.49046463231873877,Ca: 0.3333; Zn: 0.3333; Pd: 0.3333
mp-30701,Sc3(Ga3Fe)2,"Fe, Ga, Sc",3,0.01572643269480256,Orthorhombic,62,Pnma,0.0,False,True,0.2252617525077374,Sc: 0.4286; Ga: 0.4286; Fe: 0.1429
mp-1101778,LaAlAu,"Al, Au, La",3,0.0,Orthorhombic,62,Pnma,0.0,False,True,0.5961543424315552,La: 0.3333; Al: 0.3333; Au: 0.3333
mp-31152,CaGaPt,"Ca, Ga, Pt",3,0.0,Orthorhombic,62,Pnma,0.0,False,True,0.5286670870111821,Ca: 0.3333; Ga: 0.3333; Pt: 0.3333
mp-630875,Ca2In4Au3,"Au, Ca, In",3,0.0051999299999963,Orthorhombic,62,Pnma,0.0,False,True,0.5668627111861684,Ca: 0.2222; In: 0.4444; Au: 0.3333
mp-1191527,CsGa2Au3,"Au, Cs, Ga",3,0.0,Orthorhombic,62,Pnma,0.0,False,True,0.6338966792782559,Cs: 0.1667; Ga: 0.3333; Au: 0.5000
mp-570556,Sr(InAu)2,"Au, In, Sr",3,0.0,Orthorhombic,62,Pnma,0.0,False,True,0.6493244352573082,Sr: 0.3333; In: 0.3333; Au: 0.3333
mp-1102860,CaPdPb,"Ca, Pb, Pd",3,0.002862954166670484,Orthorhombic,62,Pnma,0.0,False,True,0.5986837414046102,Ca: 0.3333; Pd: 0.3333; Pb: 0.3333
mp-1102101,ScCoSn,"Co, Sc, Sn",3,0.0015300864880920528,Orthorhombic,62,Pnma,0.0,False,True,0.26599916457679995,Sc: 0.3333; Co: 0.3333; Sn: 0.3333
mp-1203073,HfCrGa2,"Cr, Ga, Hf",3,0.03269105124999783,Orthorhombic,62,Pnma,0.0,False,True,0.20838665984174706,Hf: 0.2500; Cr: 0.2500; Ga: 0.5000
mp-1103172,CaCdPd,"Ca, Cd, Pd",3,0.0,Orthorhombic,62,Pnma,0.0,False,True,0.4917316341257699,Ca: 0.3333; Cd: 0.3333; Pd: 0.3333
mp-1190136,SrAl2Au3,"Al, Au, Sr",3,0.0,Orthorhombic,62,Pnma,0.0,False,True,0.6156500629416032,Sr: 0.1667; Al: 0.3333; Au: 0.5000
mp-567368,Zr3(VGa2)2,"Ga, V, Zr",3,0.023666857453704893,Orthorhombic,62,Pnma,0.0,False,True,0.21840329667841554,Zr: 0.5000; V: 0.1667; Ga: 0.3333
mp-1102926,YGaCo,"Co, Ga, Y",3,0.0,Orthorhombic,62,Pnma,0.0,False,True,0.296010510323911,Y: 0.3333; Ga: 0.3333; Co: 0.3333
mp-574176,Ba(InAu)2,"Au, Ba, In",3,0.0,Orthorhombic,62,Pnma,0.0,False,True,0.6743062278289359,Ba: 0.3333; In: 0.3333; Au: 0.3333
mp-1204826,Hf3(CrGa2)2,"Cr, Ga, Hf",3,0.03660405324074034,Orthorhombic,62,Pnma,0.0,False,True,0.23537204591879637,Hf: 0.5000; Cr: 0.1667; Ga: 0.3333
mp-31281,SrSnAu,"Au, Sn, Sr",3,0.0,Orthorhombic,62,Pnma,0.0,False,True,0.6569796208576201,Sr: 0.3333; Sn: 0.3333; Au: 0.3333
mp-1102214,BaCaPb,"Ba, Ca, Pb",3,0.0,Orthorhombic,62,Pnma,0.21520000000000028,False,False,0.6544378418833136,Ba: 0.3333; Ca: 0.3333; Pb: 0.3333
mp-21166,SrCaPb,"Ca, Pb, Sr",3,0.0,Orthorhombic,62,Pnma,0.2677999999999998,False,False,0.6390791987087533,Sr: 0.3333; Ca: 0.3333; Pb: 0.3333
mp-1095513,SrCdAu,"Au, Cd, Sr",3,0.0,Orthorhombic,62,Pnma,0.0,False,True,0.649632374672185,Sr: 0.3333; Cd: 0.3333; Au: 0.3333
mp-5186,ScNiSn,"Ni, Sc, Sn",3,0.008884626666667117,Orthorhombic,62,Pnma,0.0,False,True,0.2718251071716681,Sc: 0.3333; Ni: 0.3333; Sn: 0.3333
mp-20846,CaIn2Ir,"Ca, In, Ir",3,0.0,Orthorhombic,62,Pnma,0.0,False,True,0.43370496884402887,Ca: 0.2500; In: 0.5000; Ir: 0.2500
mp-1191301,RbGa2Au3,"Au, Ga, Rb",3,0.0,Orthorhombic,62,Pnma,0.0,False,True,0.6243396511515187,Rb: 0.1667; Ga: 0.3333; Au: 0.5000
mp-30437,CaSnPd,"Ca, Pd, Sn",3,0.0,Orthorhombic,62,Pnma,0.0,False,True,0.5184592558726289,Ca: 0.3333; Sn: 0.3333; Pd: 0.3333
mp-1102763,LaZnPd,"La, Pd, Zn",3,0.0,Orthorhombic,62,Pnma,0.0,False,True,0.44907311951024936,La: 0.3333; Zn: 0.3333; Pd: 0.3333
mp-1095522,YZnPd,"Pd, Y, Zn",3,0.0,Orthorhombic,62,Pnma,0.0,False,True,0.40108187027920716,Y: 0.3333; Zn: 0.3333; Pd: 0.3333
mp-1193382,Zn3(SnRu)2,"Ru, Sn, Zn",3,0.0,Orthorhombic,62,Pnma,0.0,False,True,0.22391069648411183,Zn: 0.6000; Sn: 0.2000; Ru: 0.2000
mp-570689,CaInPt,"Ca, In, Pt",3,0.0,Orthorhombic,62,Pnma,0.0,False,True,0.5267088590694314,Ca: 0.3333; In: 0.3333; Pt: 0.3333
mp-1209007,SrIn5Au3,"Au, In, Sr",3,0.02848219342592584,Orthorhombic,62,Pnma,0.0,True,True,0.4930730043860858,Sr: 0.1111; In: 0.5556; Au: 0.3333
mp-1103307,CaPtPb,"Ca, Pb, Pt",3,0.0,Orthorhombic,62,Pnma,0.0,False,True,0.6155214591439251,Ca: 0.3333; Pt: 0.3333; Pb: 0.3333
mp-11811,CaGaAu,"Au, Ca, Ga",3,0.0,Orthorhombic,62,Pnma,0.0,False,True,0.6289850731314871,Ca: 0.3333; Ga: 0.3333; Au: 0.3333
mp-1197835,HfMnGa2,"Ga, Hf, Mn",3,0.0,Orthorhombic,62,Pnma,0.0,False,True,0.21182244923520263,Hf: 0.2500; Mn: 0.2500; Ga: 0.5000
mp-1103353,YGaPt,"Ga, Pt, Y",3,0.0,Orthorhombic,62,Pnma,0.0,False,True,0.433666538560063,Y: 0.3333; Ga: 0.3333; Pt: 0.3333
mp-1095478,YAlPt,"Al, Pt, Y",3,0.0,Orthorhombic,62,Pnma,0.0,False,True,0.4377467558100484,Y: 0.3333; Al: 0.3333; Pt: 0.3333
mp-569628,CaCdAu,"Au, Ca, Cd",3,0.0,Orthorhombic,62,Pnma,0.0,False,True,0.6298324292134289,Ca: 0.3333; Cd: 0.3333; Au: 0.3333
mp-1102458,YGaRh,"Ga, Rh, Y",3,0.0,Orthorhombic,62,Pnma,0.0,False,True,0.433666538560063,Y: 0.3333; Ga: 0.3333; Rh: 0.3333
mp-31481,Ca3Ga3Ir2,"Ca, Ga, Ir",3,0.0,Orthorhombic,62,Pnma,0.0,False,True,0.49145034082804345,Ca: 0.3750; Ga: 0.3750; Ir: 0.2500
mp-1207691,YCu5Sn,"Cu, Sn, Y",3,0.009430028571420834,Orthorhombic,62,Pnma,0.0,True,True,0.2423355743844574,Y: 0.1429; Cu: 0.7143; Sn: 0.1429
mp-1214064,CaIn2Rh,"Ca, In, Rh",3,0.0,Orthorhombic,62,Pnma,0.0,True,True,0.4579301256742124,Ca: 0.2500; In: 0.5000; Rh: 0.2500
mp-861738,CaMgPb,"Ca, Mg, Pb",3,0.0,Orthorhombic,62,Pnma,0.0,False,True,0.5681744645988785,Ca: 0.3333; Mg: 0.3333; Pb: 0.3333
mp-1211431,LaCu5Sn,"Cu, La, Sn",3,0.0,Orthorhombic,62,Pnma,0.0,True,True,0.2841959657327589,La: 0.1429; Cu: 0.7143; Sn: 0.1429
mp-1185647,Mg16Al12Ag,"Ag, Al, Mg",3,0.006108371034483362,Monoclinic,8,Cm,0.0,True,True,0.17123458816925238,Mg: 0.5517; Al: 0.4138; Ag: 0.0345
mp-1185744,Mg17Al11Rh,"Al, Mg, Rh",3,0.032399453915231025,Monoclinic,8,Cm,0.0,True,True,0.21190265415864146,Mg: 0.5862; Al: 0.3793; Rh: 0.0345
mp-1218678,Sr3(AlIn2)2,"Al, In, Sr",3,0.04386208111110923,Monoclinic,8,Cm,0.0,True,True,0.3907969066180313,Sr: 0.5000; Al: 0.1667; In: 0.3333
mp-30461,BiPd2Pb,"Bi, Pb, Pd",3,0.0,Monoclinic,8,Cm,0.0,False,True,0.11031205736455107,Bi: 0.2500; Pd: 0.5000; Pb: 0.2500
mp-865352,Mg17Al11Pd,"Al, Mg, Pd",3,0.010378739157687278,Monoclinic,8,Cm,0.0,True,True,0.2014359863561786,Mg: 0.5862; Al: 0.3793; Pd: 0.0345
mp-1216416,Y3(Fe8Mo)4,"Fe, Mo, Y",3,0.009148594871792426,Monoclinic,8,Cm,0.0,True,True,0.2940663190506523,Y: 0.2500; Fe: 0.6667; Mo: 0.0833
mp-865489,Mg17Al11Ag,"Ag, Al, Mg",3,0.0058160354454033225,Monoclinic,8,Cm,0.0,True,True,0.17065029152515937,Mg: 0.5862; Al: 0.3793; Ag: 0.0345
mp-1185691,Mg16Al12Pt,"Al, Mg, Pt",3,0.023694496923491126,Monoclinic,8,Cm,0.0,True,True,0.21178478295786246,Mg: 0.5517; Al: 0.4138; Pt: 0.0345
mp-1229050,Al18Co5Ni3,"Al, Co, Ni",3,0.01024430925480857,Monoclinic,8,Cm,0.0,True,True,0.13005745202948713,Al: 0.6923; Co: 0.1923; Ni: 0.1154
mp-1185743,Mg17Al11Pt,"Al, Mg, Pt",3,0.016180839265445446,Monoclinic,8,Cm,0.0,True,True,0.21190265415864146,Mg: 0.5862; Al: 0.3793; Pt: 0.0345
mp-1185652,Mg16Al12Cd,"Al, Cd, Mg",3,0.007142262068965621,Monoclinic,8,Cm,0.0,True,True,0.15292316194797462,Mg: 0.5517; Al: 0.4138; Cd: 0.0345
mp-1218850,Sr2CdAu3,"Au, Cd, Sr",3,0.012487361666664754,Monoclinic,8,Cm,0.0,True,True,0.715528165452315,Sr: 0.3333; Cd: 0.1667; Au: 0.5000
mp-1185738,Mg17Al11Au,"Al, Au, Mg",3,0.011945876522988286,Monoclinic,8,Cm,0.0,True,True,0.24880977075147812,Mg: 0.5862; Al: 0.3793; Au: 0.0345
mp-1185737,Mg17Al11Cd,"Al, Cd, Mg",3,0.008832872499999755,Monoclinic,8,Cm,0.0,True,True,0.15170532798762715,Mg: 0.5862; Al: 0.3793; Cd: 0.0345
mp-1185739,Mg17Al11Hg,"Al, Hg, Mg",3,0.011103156580460904,Monoclinic,8,Cm,0.0,True,True,0.1778347774919528,Mg: 0.5862; Al: 0.3793; Hg: 0.0345
mp-1185781,Mg17Al11Zn,"Al, Mg, Zn",3,0.004241649052299401,Monoclinic,8,Cm,0.0,True,True,0.14956456815557095,Mg: 0.5862; Al: 0.3793; Zn: 0.0345
mp-973924,Li(Mg4Al3)4,"Al, Li, Mg",3,0.0045165537212654705,Monoclinic,8,Cm,0.0,True,True,0.20563544806282796,Li: 0.1250; Mg: 0.5000; Al: 0.3750
mp-1185682,Mg16Al12Pb,"Al, Mg, Pb",3,0.01830424034482725,Monoclinic,8,Cm,0.0,True,True,0.21848902812321247,Mg: 0.5517; Al: 0.4138; Pb: 0.0345
mp-1228719,Al37(Fe6Cu)2,"Al, Cu, Fe",3,0.0,Monoclinic,8,Cm,0.0,True,True,0.08469043044089726,Al: 0.8409; Fe: 0.1364; Cu: 0.0227
mp-1227685,Ca2Zn3Ag,"Ag, Ca, Zn",3,0.0025954199999969063,Monoclinic,8,Cm,0.0,True,True,0.35355339059327373,Ca: 0.3333; Zn: 0.5000; Ag: 0.1667
mp-1185721,Mg16Al12Zn,"Al, Mg, Zn",3,0.00632221491724172,Monoclinic,8,Cm,0.0,True,True,0.15089428227506035,Mg: 0.5517; Al: 0.4138; Zn: 0.0345
mp-1228416,Ba2AlIn3,"Al, Ba, In",3,0.01684514037878726,Monoclinic,8,Cm,0.0,True,True,0.4040111384603152,Ba: 0.3333; Al: 0.1667; In: 0.5000
mp-1185664,Mg16Al12Ga,"Al, Ga, Mg",3,0.007736208189655258,Monoclinic,8,Cm,0.0,True,True,0.1608538453750428,Mg: 0.5517; Al: 0.4138; Ga: 0.0345
mp-976925,Na(Mg4Al3)4,"Al, Mg, Na",3,0.017110408917956565,Monoclinic,8,Cm,0.0,True,True,0.21811694111187238,Na: 0.1250; Mg: 0.5000; Al: 0.3750
mp-1215776,Zr2Ga3Co,"Co, Ga, Zr",3,0.055523978499995685,Monoclinic,8,Cm,0.0,True,True,0.23582597161654792,Zr: 0.3333; Ga: 0.5000; Co: 0.1667
mp-1218865,Sr2Al3In,"Al, In, Sr",3,0.012600441250000927,Monoclinic,8,Cm,0.0,True,True,0.3365717688035578,Sr: 0.3333; Al: 0.5000; In: 0.1667
mp-1227803,BaSn2Bi,"Ba, Bi, Sn",3,0.013383921041665747,Monoclinic,8,Cm,0.0,True,True,0.4726190326256445,Ba: 0.2500; Sn: 0.5000; Bi: 0.2500
mp-1185740,Mg17Al11Ga,"Al, Ga, Mg",3,0.0031933899999998516,Monoclinic,8,Cm,0.0,True,True,0.15996432420335452,Mg: 0.5862; Al: 0.3793; Ga: 0.0345
mp-1228188,Ba4Tl13Hg3,"Ba, Hg, Tl",3,0.0,Monoclinic,8,Cm,0.0,True,True,0.3468702927608532,Ba: 0.2000; Tl: 0.6500; Hg: 0.1500
mp-1185675,Mg16Al12Hg,"Al, Hg, Mg",3,0.014002066149426451,Monoclinic,8,Cm,0.0,True,True,0.1782555180815339,Mg: 0.5517; Al: 0.4138; Hg: 0.0345
mp-1228509,Ba2In3Au,"Au, Ba, In",3,0.03114462833333409,Monoclinic,8,Cm,0.0,True,True,0.5756735185849702,Ba: 0.3333; In: 0.5000; Au: 0.1667
mp-1227660,Ca2ZnGa3,"Ca, Ga, Zn",3,0.0,Monoclinic,8,Cm,0.0,True,True,0.36736297521056144,Ca: 0.3333; Zn: 0.1667; Ga: 0.5000
mp-1226684,La2In11Ni15,"In, La, Ni",3,0.031130784515306154,Monoclinic,8,Cm,0.0,True,True,0.2040542519897638,La: 0.0714; In: 0.3929; Ni: 0.5357
mp-1224520,Hf3(Ga2Cu)2,"Cu, Ga, Hf",3,0.008348731111101237,Monoclinic,8,Cm,0.0,True,True,0.27166155414412246,Hf: 0.5000; Ga: 0.3333; Cu: 0.1667
mp-1224958,La4TaCo33,"Co, La, Ta",3,0.020812724122808213,Monoclinic,8,Cm,0.0,True,True,0.24363646229941202,La: 0.1053; Ta: 0.0263; Co: 0.8684
mp-1223946,Hf2Ga3Ni,"Ga, Hf, Ni",3,0.033438147916665883,Monoclinic,8,Cm,0.0,True,True,0.2546675392655207,Hf: 0.3333; Ga: 0.5000; Ni: 0.1667
mp-1228405,Ba2AlGa3,"Al, Ba, Ga",3,0.014287971666665733,Monoclinic,8,Cm,0.0,True,True,0.4161730409336963,Ba: 0.3333; Al: 0.1667; Ga: 0.5000
mp-1226994,Mg2Co3Sn10,"Co, Mg, Sn",3,0.013528144666667075,Monoclinic,8,Cm,0.0,True,True,0.21696287444834628,Mg: 0.1333; Co: 0.2000; Sn: 0.6667
mp-1185679,Mg16Al12In,"Al, In, Mg",3,0.010845891034483301,Monoclinic,8,Cm,0.0,True,True,0.15862518734253092,Mg: 0.5517; Al: 0.4138; In: 0.0345
mp-1223908,Hf2Ga3Cu,"Cu, Ga, Hf",3,0.0,Monoclinic,8,Cm,0.0,True,True,0.25303161857759987,Hf: 0.3333; Ga: 0.5000; Cu: 0.1667
mp-1216196,Y3Ga8Ni3,"Ga, Ni, Y",3,0.04337493000000148,Monoclinic,8,Cm,0.0,True,True,0.2563410117123561,Y: 0.2143; Ga: 0.5714; Ni: 0.2143
mp-1227871,Ca3(CdGa2)2,"Ca, Cd, Ga",3,0.019391918333329983,Monoclinic,8,Cm,0.0,True,True,0.3870723446592381,Ca: 0.5000; Cd: 0.1667; Ga: 0.3333
mp-1215639,Zr2Ga3Cu,"Cu, Ga, Zr",3,0.0,Monoclinic,8,Cm,0.0,True,True,0.23900836805434236,Zr: 0.3333; Ga: 0.5000; Cu: 0.1667
mp-1218414,Sr2Zn3Cd,"Cd, Sr, Zn",3,0.010070965000001264,Monoclinic,8,Cm,0.0,True,True,0.334995854037363,Sr: 0.3333; Zn: 0.5000; Cd: 0.1667
mp-1185714,Mg16Al12Tl,"Al, Mg, Tl",3,0.01322595844827612,Monoclinic,8,Cm,0.0,True,True,0.1495884167020127,Mg: 0.5517; Al: 0.4138; Tl: 0.0345
mp-1185741,Mg17Al11In,"Al, In, Mg",3,0.01178784732758631,Monoclinic,8,Cm,0.0,True,True,0.157655232751067,Mg: 0.5862; Al: 0.3793; In: 0.0345
mp-1219537,Sc3(Ga4Fe5)4,"Fe, Ga, Sc",3,0.01905965824786371,Monoclinic,8,Cm,0.0,True,True,0.19985237607349635,Sc: 0.2500; Ga: 0.3333; Fe: 0.4167
mp-1185747,Mg17Al11Sn,"Al, Mg, Sn",3,0.015286267672415033,Monoclinic,8,Cm,0.0,True,True,0.1736507353381265,Mg: 0.5862; Al: 0.3793; Sn: 0.0345
mp-1185736,Mg16ZrAl12,"Al, Mg, Zr",3,0.05027216840517257,Monoclinic,8,Cm,0.0,True,True,0.1472183620869113,Mg: 0.5517; Zr: 0.0345; Al: 0.4138
mp-1215689,Zr2Ga3Ni,"Ga, Ni, Zr",3,0.021265596648154528,Monoclinic,8,Cm,0.0,True,True,0.2406703600824626,Zr: 0.3333; Ga: 0.5000; Ni: 0.1667
mp-1227717,Ca2In3Cu,"Ca, Cu, In",3,0.025175520666666173,Monoclinic,8,Cm,0.0,True,True,0.3841874542459709,Ca: 0.3333; In: 0.5000; Cu: 0.1667
mp-1185686,Mg16Al12Pd,"Al, Mg, Pd",3,0.014513391643319107,Monoclinic,8,Cm,0.0,True,True,0.20145369433976415,Mg: 0.5517; Al: 0.4138; Pd: 0.0345
mp-1185742,Mg17Al11Pb,"Al, Mg, Pb",3,0.0169180169827583,Monoclinic,8,Cm,0.0,True,True,0.21868485950439415,Mg: 0.5862; Al: 0.3793; Pb: 0.0345
mp-1185731,Mg16ScAl12,"Al, Mg, Sc",3,0.03785282219827657,Monoclinic,8,Cm,0.0,True,True,0.14658214694367094,Mg: 0.5517; Sc: 0.0345; Al: 0.4138
mp-1224165,Hf2Ga3Co,"Co, Ga, Hf",3,0.06214357263888459,Monoclinic,8,Cm,0.0,True,True,0.24989442215108004,Hf: 0.3333; Ga: 0.5000; Co: 0.1667