material_id,formula,elements,num_elements,energy_above_hull,crystal_system,spacegroup_number,spacegroup_symbol,band_gap,theoretical,is_metal,electronegativity_difference,atomic_concentrations
mp-1184955,Li2TlCd,"Cd, Li, Tl",3,0.0075763187500008655,Cubic,225,Fm-3m,0.0,True,True,0.33840619084171614,Li: 0.5000; Tl: 0.2500; Cd: 0.2500
mp-977363,Ta2TcMo,"Mo, Ta, Tc",3,0.0,Cubic,225,Fm-3m,0.0,True,True,0.28049064155511505,Ta: 0.5000; Tc: 0.2500; Mo: 0.2500
mp-1184985,Li2InPb,"In, Li, Pb",3,0.0027709864473690615,Cubic,225,Fm-3m,0.0,True,True,0.5715931682586839,Li: 0.5000; In: 0.2500; Pb: 0.2500
mp-867307,Be2RuAu,"Au, Be, Ru",3,0.0,Cubic,225,Fm-3m,0.0,True,True,0.417672120209142,Be: 0.5000; Ru: 0.2500; Au: 0.2500
mp-865088,MnGaIr2,"Ga, Ir, Mn",3,0.0,Cubic,225,Fm-3m,0.0,True,True,0.2757716446627536,Mn: 0.2500; Ga: 0.2500; Ir: 0.5000
mp-1185843,MgAlNi2,"Al, Mg, Ni",3,0.010864636666667593,Cubic,225,Fm-3m,0.0,True,True,0.24874685927665494,Mg: 0.2500; Al: 0.2500; Ni: 0.5000
mp-867123,TaTiOs2,"Os, Ta, Ti",3,0.0,Cubic,225,Fm-3m,0.0,True,True,0.3402939905434712,Ta: 0.2500; Ti: 0.2500; Os: 0.5000
mp-867109,ScZn2Ag,"Ag, Sc, Zn",3,0.007045755986842206,Cubic,225,Fm-3m,0.0,True,True,0.20154093876927331,Sc: 0.2500; Zn: 0.5000; Ag: 0.2500
mp-865594,Y2CuIr,"Cu, Ir, Y",3,0.014566892569443546,Cubic,225,Fm-3m,0.0,True,True,0.42833981836854723,Y: 0.5000; Cu: 0.2500; Ir: 0.2500
mp-865842,Ti2OsRu,"Os, Ru, Ti",3,0.0,Cubic,225,Fm-3m,0.0,True,True,0.33000000000000007,Ti: 0.5000; Os: 0.2500; Ru: 0.2500
mp-1185238,LiTiPd2,"Li, Pd, Ti",3,0.0,Cubic,225,Fm-3m,0.0,True,True,0.5100000000000001,Li: 0.2500; Ti: 0.2500; Pd: 0.5000
mp-861656,Ti2CrIr,"Cr, Ir, Ti",3,0.0,Cubic,225,Fm-3m,0.0,True,True,0.27290108097990384,Ti: 0.5000; Cr: 0.2500; Ir: 0.2500
mp-977582,ZrZnRh2,"Rh, Zn, Zr",3,0.0,Cubic,225,Fm-3m,0.0,True,True,0.41088319508103505,Zr: 0.2500; Zn: 0.2500; Rh: 0.5000
mp-865001,HfScOs2,"Hf, Os, Sc",3,0.0,Cubic,225,Fm-3m,0.0,True,True,0.4355169342287393,Hf: 0.2500; Sc: 0.2500; Os: 0.5000
mp-867911,ScCdPd2,"Cd, Pd, Sc",3,0.0,Cubic,225,Fm-3m,0.0,True,True,0.35709767571352247,Sc: 0.2500; Cd: 0.2500; Pd: 0.5000
mp-865165,HfScCo2,"Co, Hf, Sc",3,0.0,Cubic,225,Fm-3m,0.0,True,True,0.275816968296006,Hf: 0.2500; Sc: 0.2500; Co: 0.5000
mp-1207398,Zr6Be15Pd8,"Be, Pd, Zr",3,0.0,Cubic,225,Fm-3m,0.0,True,True,0.3255712988428221,Zr: 0.2069; Be: 0.5172; Pd: 0.2759
mp-861637,Ti2AlTc,"Al, Tc, Ti",3,0.0,Cubic,225,Fm-3m,0.0,True,True,0.14855554516745575,Ti: 0.5000; Al: 0.2500; Tc: 0.2500
mp-1187213,Ta2ReOs,"Os, Re, Ta",3,0.0,Cubic,225,Fm-3m,0.0,True,True,0.29474565306378997,Ta: 0.5000; Re: 0.2500; Os: 0.2500
mp-866219,HfSnRu2,"Hf, Ru, Sn",3,0.0,Cubic,225,Fm-3m,0.0,True,True,0.36834087473426025,Hf: 0.2500; Sn: 0.2500; Ru: 0.5000
mp-862486,Sc2AlOs,"Al, Os, Sc",3,0.0,Cubic,225,Fm-3m,0.0,True,True,0.34317451828479345,Sc: 0.5000; Al: 0.2500; Os: 0.2500
mp-865989,Al2IrRu,"Al, Ir, Ru",3,0.0,Cubic,225,Fm-3m,0.0,True,True,0.29500000000000004,Al: 0.5000; Ir: 0.2500; Ru: 0.2500
mp-1185762,Mg2CdRh,"Cd, Mg, Rh",3,0.02131258000000047,Cubic,225,Fm-3m,0.0,True,True,0.39676031807629136,Mg: 0.5000; Cd: 0.2500; Rh: 0.2500
mp-1185212,LiCd2Ni,"Cd, Li, Ni",3,0.05500851625000003,Cubic,225,Fm-3m,0.0,True,True,0.3508828151961848,Li: 0.2500; Cd: 0.5000; Ni: 0.2500
mp-1183163,AlFeIr2,"Al, Fe, Ir",3,0.01796346916666902,Cubic,225,Fm-3m,0.0,True,True,0.2522895162308573,Al: 0.2500; Fe: 0.2500; Ir: 0.5000
mp-862610,LiHfIr2,"Hf, Ir, Li",3,0.0,Cubic,225,Fm-3m,0.0,True,True,0.5419409561935692,Li: 0.2500; Hf: 0.2500; Ir: 0.5000
mp-867820,LiAlPd2,"Al, Li, Pd",3,0.0,Cubic,225,Fm-3m,0.0,True,True,0.5043498289877771,Li: 0.2500; Al: 0.2500; Pd: 0.5000
mp-1193840,Zr6Al16Pd7,"Al, Pd, Zr",3,0.0,Cubic,225,Fm-3m,0.0,False,True,0.30513520131581867,Zr: 0.2069; Al: 0.5517; Pd: 0.2414
mp-1194111,Zr6Ga16Os7,"Ga, Os, Zr",3,0.07569403586956369,Cubic,225,Fm-3m,0.0,False,True,0.29044105211943194,Zr: 0.2069; Ga: 0.5517; Os: 0.2414
mp-866284,Al2IrOs,"Al, Ir, Os",3,0.0,Cubic,225,Fm-3m,0.0,True,True,0.29500000000000004,Al: 0.5000; Ir: 0.2500; Os: 0.2500
mp-1187436,Ti2CuRe,"Cu, Re, Ti",3,0.0,Cubic,225,Fm-3m,0.0,True,True,0.17999999999999994,Ti: 0.5000; Cu: 0.2500; Re: 0.2500
mp-865868,LiZrRh2,"Li, Rh, Zr",3,0.0,Cubic,225,Fm-3m,0.0,True,True,0.5759503016754136,Li: 0.2500; Zr: 0.2500; Rh: 0.5000
mp-1187711,Y2GaAg,"Ag, Ga, Y",3,0.009130138749998906,Cubic,225,Fm-3m,0.0,True,True,0.3277575323314477,Y: 0.5000; Ga: 0.2500; Ag: 0.2500
mp-2927,LiAg2Sn,"Ag, Li, Sn",3,0.0,Cubic,225,Fm-3m,0.0,False,True,0.415872576638566,Li: 0.2500; Ag: 0.5000; Sn: 0.2500
mp-1185377,LiMg2Ni,"Li, Mg, Ni",3,0.011791346631944588,Cubic,225,Fm-3m,0.0,True,True,0.33566166000900366,Li: 0.2500; Mg: 0.5000; Ni: 0.2500
mp-977556,MgScCd2,"Cd, Mg, Sc",3,0.0,Cubic,225,Fm-3m,0.0,True,True,0.17837810964353215,Mg: 0.2500; Sc: 0.2500; Cd: 0.5000
mp-1186759,Ta2OsRu,"Os, Ru, Ta",3,0.026476593125003944,Cubic,225,Fm-3m,0.0,True,True,0.3500000000000001,Ta: 0.5000; Os: 0.2500; Ru: 0.2500
mp-16524,ScAlPd2,"Al, Pd, Sc",3,0.0,Cubic,225,Fm-3m,0.0,False,True,0.3682645109157276,Sc: 0.2500; Al: 0.2500; Pd: 0.5000
mp-1183281,Ba2CdIn,"Ba, Cd, In",3,0.0018477962499989786,Cubic,225,Fm-3m,0.0,True,True,0.42369653054987366,Ba: 0.5000; Cd: 0.2500; In: 0.2500
mp-1185365,LiMg2Au,"Au, Li, Mg",3,0.0,Cubic,225,Fm-3m,0.0,True,True,0.5956718895499434,Li: 0.2500; Mg: 0.5000; Au: 0.2500
mp-977353,Ta2ReMo,"Mo, Re, Ta",3,0.0,Cubic,225,Fm-3m,0.0,True,True,0.28049064155511505,Ta: 0.5000; Re: 0.2500; Mo: 0.2500
mp-1186763,Ta2MoW,"Mo, Ta, W",3,0.0,Cubic,225,Fm-3m,0.0,True,True,0.3865229618017537,Ta: 0.5000; Mo: 0.2500; W: 0.2500
mp-977418,LiMgAu2,"Au, Li, Mg",3,0.0,Cubic,225,Fm-3m,0.0,True,True,0.7071907451317502,Li: 0.2500; Mg: 0.2500; Au: 0.5000
mp-864945,MnBe2Rh,"Be, Mn, Rh",3,0.0,Cubic,225,Fm-3m,0.0,True,True,0.31043316510965757,Mn: 0.2500; Be: 0.5000; Rh: 0.2500
mp-977537,ZrCdRh2,"Cd, Rh, Zr",3,0.0,Cubic,225,Fm-3m,0.0,True,True,0.4054935264588079,Zr: 0.2500; Cd: 0.2500; Rh: 0.5000
mp-19929,MgInNi2,"In, Mg, Ni",3,0.0,Cubic,225,Fm-3m,0.0,False,True,0.24681724007856498,Mg: 0.2500; In: 0.2500; Ni: 0.5000
mp-1185321,LiAl2Au,"Al, Au, Li",3,0.015241723749998215,Cubic,225,Fm-3m,0.0,True,True,0.5566192594583842,Li: 0.2500; Al: 0.5000; Au: 0.2500
mp-867253,LiZn2Ir,"Ir, Li, Zn",3,0.0,Cubic,225,Fm-3m,0.0,True,True,0.4323771501825693,Li: 0.2500; Zn: 0.5000; Ir: 0.2500
mp-1187984,Zr2FeTc,"Fe, Tc, Zr",3,0.0,Cubic,225,Fm-3m,0.0,True,True,0.2686424203285847,Zr: 0.5000; Fe: 0.2500; Tc: 0.2500
mp-977554,MgScAg2,"Ag, Mg, Sc",3,0.0,Cubic,225,Fm-3m,0.0,True,True,0.29802474729458284,Mg: 0.2500; Sc: 0.2500; Ag: 0.5000
mp-865779,Ga2CoRu,"Co, Ga, Ru",3,0.05598914999999671,Cubic,225,Fm-3m,0.0,True,True,0.16132265804901685,Ga: 0.5000; Co: 0.2500; Ru: 0.2500
mp-861643,CaLaMg2,"Ca, La, Mg",3,0.0,Cubic,225,Fm-3m,0.0,True,True,0.13472193585307482,Ca: 0.2500; La: 0.2500; Mg: 0.5000
mp-1184576,HfBeIr2,"Be, Hf, Ir",3,0.01651174750000095,Cubic,225,Fm-3m,0.0,True,True,0.3942318480285428,Hf: 0.2500; Be: 0.2500; Ir: 0.5000
mp-867915,ScGaCo2,"Co, Ga, Sc",3,0.0030316987500018655,Cubic,225,Fm-3m,0.0,True,True,0.21695333599647637,Sc: 0.2500; Ga: 0.2500; Co: 0.5000
mp-866193,Li2LaIn,"In, La, Li",3,0.0,Cubic,225,Fm-3m,0.11169999999999991,True,False,0.3327160951922825,Li: 0.5000; La: 0.2500; In: 0.2500
mp-865308,Be2CuRh,"Be, Cu, Rh",3,0.0,Cubic,225,Fm-3m,0.0,True,True,0.2926602125332378,Be: 0.5000; Cu: 0.2500; Rh: 0.2500
mp-867810,LiYHg2,"Hg, Li, Y",3,0.0,Cubic,225,Fm-3m,0.0,True,True,0.45793012567421243,Li: 0.2500; Y: 0.2500; Hg: 0.5000
mp-866157,TiGaRh2,"Ga, Rh, Ti",3,0.0,Cubic,225,Fm-3m,0.0,True,True,0.31720458697818343,Ti: 0.2500; Ga: 0.2500; Rh: 0.5000
mp-1193679,Zr6Al16Ni7,"Al, Ni, Zr",3,0.0,Cubic,225,Fm-3m,0.0,False,True,0.19425518600269523,Zr: 0.2069; Al: 0.5517; Ni: 0.2414
mp-866142,TiGaIr2,"Ga, Ir, Ti",3,0.00010071450000204152,Cubic,225,Fm-3m,0.0,True,True,0.27931836674304117,Ti: 0.2500; Ga: 0.2500; Ir: 0.5000
mp-865487,VZnRh2,"Rh, V, Zn",3,0.0,Cubic,225,Fm-3m,0.0,True,True,0.3200781154655844,V: 0.2500; Zn: 0.2500; Rh: 0.5000
mp-978267,Mg2ZnRh,"Mg, Rh, Zn",3,0.014426390789473054,Cubic,225,Fm-3m,0.0,True,True,0.3960665979352461,Mg: 0.5000; Zn: 0.2500; Rh: 0.2500
mp-864920,MgZrAu2,"Au, Mg, Zr",3,0.0,Cubic,225,Fm-3m,0.0,True,True,0.6100409822298827,Mg: 0.2500; Zr: 0.2500; Au: 0.5000
mp-1185981,Mn2IrRh,"Ir, Mn, Rh",3,0.0,Cubic,225,Fm-3m,0.0,True,True,0.3461574786134195,Mn: 0.5000; Ir: 0.2500; Rh: 0.2500
mp-1184589,HfTc2Mo,"Hf, Mo, Tc",3,0.0,Cubic,225,Fm-3m,0.0,True,True,0.31571347769773783,Hf: 0.2500; Tc: 0.5000; Mo: 0.2500
mp-1184568,Hf2ZnTc,"Hf, Tc, Zn",3,0.0,Cubic,225,Fm-3m,0.0,True,True,0.2534141866589161,Hf: 0.5000; Zn: 0.2500; Tc: 0.2500
mp-864607,ZrCdPd2,"Cd, Pd, Zr",3,0.0,Cubic,225,Fm-3m,0.0,True,True,0.36772952016393795,Zr: 0.2500; Cd: 0.2500; Pd: 0.5000
mp-865743,Ga2IrRh,"Ga, Ir, Rh",3,0.0,Cubic,225,Fm-3m,0.0,True,True,0.21685248442201435,Ga: 0.5000; Ir: 0.2500; Rh: 0.2500
mp-1185251,LiY2Hg,"Hg, Li, Y",3,0.0007788608333321179,Cubic,225,Fm-3m,0.0,True,True,0.3850649295898031,Li: 0.2500; Y: 0.5000; Hg: 0.2500
mp-867802,Sc2CuOs,"Cu, Os, Sc",3,0.0,Cubic,225,Fm-3m,0.0,True,True,0.36093628246547893,Sc: 0.5000; Cu: 0.2500; Os: 0.2500
mp-982443,NaCaPb2,"Ca, Na, Pb",3,0.014449742968751345,Cubic,225,Fm-3m,0.0,True,True,0.682948570538075,Na: 0.2500; Ca: 0.2500; Pb: 0.5000
mp-1187238,TaMn2Ga,"Ga, Mn, Ta",3,0.07336049218749707,Cubic,225,Fm-3m,0.0,True,True,0.12152674602736635,Ta: 0.2500; Mn: 0.5000; Ga: 0.2500
mp-10873,ScAlAu2,"Al, Au, Sc",3,0.0,Cubic,225,Fm-3m,0.0,False,True,0.5348539520280279,Sc: 0.2500; Al: 0.2500; Au: 0.5000
mp-865030,HfScRu2,"Hf, Ru, Sc",3,0.0,Cubic,225,Fm-3m,0.0,True,True,0.4355169342287393,Hf: 0.2500; Sc: 0.2500; Ru: 0.5000
mp-866071,MgTaOs2,"Mg, Os, Ta",3,0.0,Cubic,225,Fm-3m,0.0,True,True,0.4031361432568408,Mg: 0.2500; Ta: 0.2500; Os: 0.5000
mp-864651,Ta2NbRu,"Nb, Ru, Ta",3,0.0,Cubic,225,Fm-3m,0.0,True,True,0.2915475947422651,Ta: 0.5000; Nb: 0.2500; Ru: 0.2500
mp-1187704,Y2ZnAg,"Ag, Y, Zn",3,0.01242043749999766,Cubic,225,Fm-3m,0.0,True,True,0.30170349683091174,Y: 0.5000; Zn: 0.2500; Ag: 0.2500
mp-977362,ZnGaRh2,"Ga, Rh, Zn",3,0.0,Cubic,225,Fm-3m,0.0,True,True,0.2807579028273291,Zn: 0.2500; Ga: 0.2500; Rh: 0.5000
mp-571154,Sr11Al4Sn3,"Al, Sn, Sr",3,0.001154658940331288,Cubic,225,Fm-3m,0.0,False,True,0.409379611933309,Sr: 0.6111; Al: 0.2222; Sn: 0.1667
mp-1183583,CaYZn2,"Ca, Y, Zn",3,0.0018815937500002988,Cubic,225,Fm-3m,0.0,True,True,0.2809804263645423,Ca: 0.2500; Y: 0.2500; Zn: 0.5000
mp-861983,Ti2MnFe,"Fe, Mn, Ti",3,0.0,Cubic,225,Fm-3m,0.0,True,True,0.12419742348374223,Ti: 0.5000; Mn: 0.2500; Fe: 0.2500
mp-1183148,AlGaCo2,"Al, Co, Ga",3,0.003663324999999773,Cubic,225,Fm-3m,0.0,True,True,0.11056672193747982,Al: 0.2500; Ga: 0.2500; Co: 0.5000
mp-12580,Li2CdSn,"Cd, Li, Sn",3,0.0,Cubic,225,Fm-3m,0.0,False,True,0.43314980087724847,Li: 0.5000; Cd: 0.2500; Sn: 0.2500
mp-1187121,Sr2MgIn,"In, Mg, Sr",3,6.554831801386385e-05,Cubic,225,Fm-3m,0.0,True,True,0.3407620137280563,Sr: 0.5000; Mg: 0.2500; In: 0.2500
mp-4536,ScNi2Sn,"Ni, Sc, Sn",3,0.0,Cubic,225,Fm-3m,0.0,False,True,0.24622144504490254,Sc: 0.2500; Ni: 0.5000; Sn: 0.2500
mp-864902,MgTlRh2,"Mg, Rh, Tl",3,0.0,Cubic,225,Fm-3m,0.0,True,True,0.4219819308927811,Mg: 0.2500; Tl: 0.2500; Rh: 0.5000
mp-972396,Ti2MnRe,"Mn, Re, Ti",3,0.0228985784499951,Cubic,225,Fm-3m,0.0,True,True,0.1544951455548037,Ti: 0.5000; Mn: 0.2500; Re: 0.2500
mp-1185766,Mg2IrRh,"Ir, Mg, Rh",3,0.05051019664473699,Cubic,225,Fm-3m,0.0,True,True,0.46585942085569115,Mg: 0.5000; Ir: 0.2500; Rh: 0.2500
mp-861930,LiPdAu2,"Au, Li, Pd",3,0.0,Cubic,225,Fm-3m,0.0,True,True,0.641619045851976,Li: 0.2500; Pd: 0.2500; Au: 0.5000
mp-977425,Ta2CrRu,"Cr, Ru, Ta",3,0.0,Cubic,225,Fm-3m,0.0,True,True,0.2875326068465976,Ta: 0.5000; Cr: 0.2500; Ru: 0.2500
mp-1187706,Y2CdHg,"Cd, Hg, Y",3,0.0089803650000011,Cubic,225,Fm-3m,0.0,True,True,0.33116272435163957,Y: 0.5000; Cd: 0.2500; Hg: 0.2500
mp-864844,Zn2RhAu,"Au, Rh, Zn",3,0.0,Cubic,225,Fm-3m,0.0,True,True,0.39096035604649226,Zn: 0.5000; Rh: 0.2500; Au: 0.2500
mp-1184967,Li2PbAu,"Au, Li, Pb",3,0.021198090000000835,Cubic,225,Fm-3m,0.0,True,True,0.731278845584911,Li: 0.5000; Pb: 0.2500; Au: 0.2500
mp-1185943,MgRu2W,"Mg, Ru, W",3,0.0,Cubic,225,Fm-3m,0.0,True,True,0.41366502148477574,Mg: 0.2500; Ru: 0.5000; W: 0.2500
mp-862257,Sc2ZnAu,"Au, Sc, Zn",3,0.0,Cubic,225,Fm-3m,0.0,True,True,0.4838065212458385,Sc: 0.5000; Zn: 0.2500; Au: 0.2500
mp-1185126,Li2YAl,"Al, Li, Y",3,0.021986638194444907,Cubic,225,Fm-3m,0.00010000000000021103,True,False,0.257524270700841,Li: 0.5000; Y: 0.2500; Al: 0.2500
mp-865651,Y2TlCd,"Cd, Tl, Y",3,0.0,Cubic,225,Fm-3m,0.0,True,True,0.21890351755967744,Y: 0.5000; Tl: 0.2500; Cd: 0.2500
mp-867881,ScTlRh2,"Rh, Sc, Tl",3,0.0,Cubic,225,Fm-3m,0.0,True,True,0.4055551750378731,Sc: 0.2500; Tl: 0.2500; Rh: 0.5000
mp-865138,Hf2MnIr,"Hf, Ir, Mn",3,0.0,Cubic,225,Fm-3m,0.0,True,True,0.3680607966083865,Hf: 0.5000; Mn: 0.2500; Ir: 0.2500
mp-1184030,GaCuPd2,"Cu, Ga, Pd",3,0.0009198587500023336,Cubic,225,Fm-3m,0.0,True,True,0.17541023345289758,Ga: 0.2500; Cu: 0.2500; Pd: 0.5000
mp-1187757,Y2RuAu,"Au, Ru, Y",3,0.029723401562500307,Cubic,225,Fm-3m,0.0,True,True,0.587430846993925,Y: 0.5000; Ru: 0.2500; Au: 0.2500
mp-865926,Cd2PdRh,"Cd, Pd, Rh",3,0.0,Cubic,225,Fm-3m,0.0,True,True,0.2764507189355817,Cd: 0.5000; Pd: 0.2500; Rh: 0.2500
mp-862312,LiBePd2,"Be, Li, Pd",3,0.0,Cubic,225,Fm-3m,0.0,True,True,0.5073645139345085,Li: 0.2500; Be: 0.2500; Pd: 0.5000
mp-865150,MgCdAu2,"Au, Cd, Mg",3,0.01627025500000201,Cubic,225,Fm-3m,0.0,True,True,0.5370754136990448,Mg: 0.2500; Cd: 0.2500; Au: 0.5000
mp-862366,Sc2TlAg,"Ag, Sc, Tl",3,0.0,Cubic,225,Fm-3m,0.0,True,True,0.23466731770743016,Sc: 0.5000; Tl: 0.2500; Ag: 0.2500
mp-866140,TiGaPd2,"Ga, Pd, Ti",3,0.0,Cubic,225,Fm-3m,0.0,True,True,0.27931836674304117,Ti: 0.2500; Ga: 0.2500; Pd: 0.5000
mp-977571,MgRh2Pb,"Mg, Pb, Rh",3,0.0,Cubic,225,Fm-3m,0.0,True,True,0.4277265481589843,Mg: 0.2500; Rh: 0.5000; Pb: 0.2500
mp-1187721,Y2MgTl,"Mg, Tl, Y",3,0.011352147916666944,Cubic,225,Fm-3m,0.0,True,True,0.16437381178277766,Y: 0.5000; Mg: 0.2500; Tl: 0.2500
mp-867148,LiHfRh2,"Hf, Li, Rh",3,0.0,Cubic,225,Fm-3m,0.0,True,True,0.5811196090307054,Li: 0.2500; Hf: 0.2500; Rh: 0.5000
mp-866051,HfFe2Sn,"Fe, Hf, Sn",3,0.009963828750001902,Cubic,225,Fm-3m,0.02099999999999902,True,False,0.25387004549572206,Hf: 0.2500; Fe: 0.5000; Sn: 0.2500
mp-865082,NaCaAu2,"Au, Ca, Na",3,0.005945694687497394,Cubic,225,Fm-3m,0.0,True,True,0.7878887929143301,Na: 0.2500; Ca: 0.2500; Au: 0.5000
mp-1187708,Y2AlAg,"Ag, Al, Y",3,0.007891503749998918,Cubic,225,Fm-3m,0.0,True,True,0.29736341402398514,Y: 0.5000; Al: 0.2500; Ag: 0.2500
mp-3791,ScCo2Sn,"Co, Sc, Sn",3,0.0,Cubic,225,Fm-3m,0.0,False,True,0.23895606290697036,Sc: 0.2500; Co: 0.5000; Sn: 0.2500
mp-1185101,LaYZn2,"La, Y, Zn",3,0.020421087500000823,Cubic,225,Fm-3m,0.0,True,True,0.24864633518312707,La: 0.2500; Y: 0.2500; Zn: 0.5000
mp-862360,Sc2NiIr,"Ir, Ni, Sc",3,0.0,Cubic,225,Fm-3m,0.0,True,True,0.36231029518908237,Sc: 0.5000; Ni: 0.2500; Ir: 0.2500
mp-22493,YInAu2,"Au, In, Y",3,0.0,Cubic,225,Fm-3m,0.0,False,True,0.5564171097297422,Y: 0.2500; In: 0.2500; Au: 0.5000
mp-866292,Ba2TlCd,"Ba, Cd, Tl",3,0.0,Cubic,225,Fm-3m,0.0,True,True,0.38329981737538044,Ba: 0.5000; Tl: 0.2500; Cd: 0.2500
mp-1193272,Zr6Al16Pt7,"Al, Pt, Zr",3,0.0,Cubic,225,Fm-3m,0.0,False,True,0.3373467855864955,Zr: 0.2069; Al: 0.5517; Pt: 0.2414
mp-861916,La2IrPd,"Ir, La, Pd",3,0.03196737124999949,Cubic,225,Fm-3m,0.0,True,True,0.55,La: 0.5000; Ir: 0.2500; Pd: 0.2500
mp-866117,HfZnAu2,"Au, Hf, Zn",3,0.0,Cubic,225,Fm-3m,0.0,True,True,0.5466888969057264,Hf: 0.2500; Zn: 0.2500; Au: 0.5000
mp-1187935,ZnGaNi2,"Ga, Ni, Zn",3,0.0,Cubic,225,Fm-3m,0.0,True,True,0.1063014581273465,Zn: 0.2500; Ga: 0.2500; Ni: 0.5000
mp-1183470,Ca2ZnPb,"Ca, Pb, Zn",3,0.0037649670000008406,Cubic,225,Fm-3m,0.0,True,True,0.5502953752304303,Ca: 0.5000; Zn: 0.2500; Pb: 0.2500
mp-862775,LiInRh2,"In, Li, Rh",3,0.0111117833333374,Cubic,225,Fm-3m,0.0,True,True,0.5315072906367324,Li: 0.2500; In: 0.2500; Rh: 0.5000
mp-865656,TiMn2W,"Mn, Ti, W",3,0.0,Cubic,225,Fm-3m,0.0,True,True,0.3522073253071264,Ti: 0.2500; Mn: 0.5000; W: 0.2500
mp-861878,Cd2AgRh,"Ag, Cd, Rh",3,0.0,Cubic,225,Fm-3m,0.0,True,True,0.24159625411003371,Cd: 0.5000; Ag: 0.2500; Rh: 0.2500
mp-866229,Ca2SnHg,"Ca, Hg, Sn",3,0.0,Cubic,225,Fm-3m,0.1485000000000003,True,False,0.49020403915104577,Ca: 0.5000; Sn: 0.2500; Hg: 0.2500
mp-1187201,Ta2VRe,"Re, Ta, V",3,0.0,Cubic,225,Fm-3m,0.0,True,True,0.16330569494050104,Ta: 0.5000; V: 0.2500; Re: 0.2500
mp-867475,TaSnRu2,"Ru, Sn, Ta",3,0.0,Cubic,225,Fm-3m,0.0,True,True,0.2857883832488648,Ta: 0.2500; Sn: 0.2500; Ru: 0.5000
mp-1187417,Ti2MoPd,"Mo, Pd, Ti",3,0.0,Cubic,225,Fm-3m,0.0,True,True,0.3203123475609394,Ti: 0.5000; Mo: 0.2500; Pd: 0.2500
mp-977356,ZnGaIr2,"Ga, Ir, Zn",3,0.0,Cubic,225,Fm-3m,0.0,True,True,0.24171263930543652,Zn: 0.2500; Ga: 0.2500; Ir: 0.5000
mp-867751,Ca2AgSn,"Ag, Ca, Sn",3,0.0,Cubic,225,Fm-3m,0.0,True,True,0.4726190326256445,Ca: 0.5000; Ag: 0.2500; Sn: 0.2500
mp-1193241,Hf6Al16Pd7,"Al, Hf, Pd",3,0.0,Cubic,225,Fm-3m,0.0,False,True,0.3126975950804298,Hf: 0.2069; Al: 0.5517; Pd: 0.2414
mp-867748,ScSnRu2,"Ru, Sc, Sn",3,0.0,Cubic,225,Fm-3m,0.0,True,True,0.34336569426778796,Sc: 0.2500; Sn: 0.2500; Ru: 0.5000
mp-865533,Ti2ReOs,"Os, Re, Ti",3,0.0,Cubic,225,Fm-3m,0.0,True,True,0.27617928959282956,Ti: 0.5000; Re: 0.2500; Os: 0.2500
mp-979713,YHgPd2,"Hg, Pd, Y",3,0.01518651833333351,Cubic,225,Fm-3m,0.0,True,True,0.40382545734512587,Y: 0.2500; Hg: 0.2500; Pd: 0.5000
mp-977454,HgPd2Au,"Au, Hg, Pd",3,0.0,Cubic,225,Fm-3m,0.0,True,True,0.19410048943781671,Hg: 0.2500; Pd: 0.5000; Au: 0.2500
mp-867273,Be2CuIr,"Be, Cu, Ir",3,0.0,Cubic,225,Fm-3m,0.0,True,True,0.2623928352680386,Be: 0.5000; Cu: 0.2500; Ir: 0.2500
mp-1185755,Mg2CdHg,"Cd, Hg, Mg",3,0.023827070555555663,Cubic,225,Fm-3m,0.0,True,True,0.2890826006524778,Mg: 0.5000; Cd: 0.2500; Hg: 0.2500
mp-972882,Sc2CdAg,"Ag, Cd, Sc",3,0.010521727500002243,Cubic,225,Fm-3m,0.0,True,True,0.24046829312822088,Sc: 0.5000; Cd: 0.2500; Ag: 0.2500
mp-867260,CdAgPd2,"Ag, Cd, Pd",3,0.0,Cubic,225,Fm-3m,0.0,True,True,0.21266170318136748,Cd: 0.2500; Ag: 0.2500; Pd: 0.5000
mp-977534,ZrNbTc2,"Nb, Tc, Zr",3,0.0,Cubic,225,Fm-3m,0.0,True,True,0.23752631433169666,Zr: 0.2500; Nb: 0.2500; Tc: 0.5000
mp-866170,TiInRh2,"In, Rh, Ti",3,0.0,Cubic,225,Fm-3m,0.0,True,True,0.32140317359976384,Ti: 0.2500; In: 0.2500; Rh: 0.5000
mp-1185363,LiMgHg2,"Hg, Li, Mg",3,0.0,Cubic,225,Fm-3m,0.0,True,True,0.44313513740167343,Li: 0.2500; Mg: 0.2500; Hg: 0.5000
mp-1187194,Ta2TiRe,"Re, Ta, Ti",3,0.012402765277784056,Cubic,225,Fm-3m,0.0,True,True,0.16822603841260717,Ta: 0.5000; Ti: 0.2500; Re: 0.2500
mp-21171,MnGaCo2,"Co, Ga, Mn",3,0.0,Cubic,225,Fm-3m,0.0,False,True,0.13583077707206118,Mn: 0.2500; Ga: 0.2500; Co: 0.5000
mp-19946,YInCu2,"Cu, In, Y",3,0.024965638055558514,Cubic,225,Fm-3m,0.0,False,True,0.2814249455894058,Y: 0.2500; In: 0.2500; Cu: 0.5000
mp-861501,AgHgPd2,"Ag, Hg, Pd",3,0.0,Cubic,225,Fm-3m,0.0,True,True,0.12007809958522839,Ag: 0.2500; Hg: 0.2500; Pd: 0.5000
mp-861875,LiHf2Re,"Hf, Li, Re",3,0.0,Cubic,225,Fm-3m,0.0,True,True,0.33271609519228246,Li: 0.2500; Hf: 0.5000; Re: 0.2500
mp-1193118,Ti6Al16Ru7,"Al, Ru, Ti",3,0.08144036114942388,Cubic,225,Fm-3m,0.0,False,True,0.26205263106989407,Ti: 0.2069; Al: 0.5517; Ru: 0.2414
mp-1186122,NaCd2Rh,"Cd, Na, Rh",3,0.0,Cubic,225,Fm-3m,0.0,True,True,0.4791855068759905,Na: 0.2500; Cd: 0.5000; Rh: 0.2500
mp-1183571,CaYPt2,"Ca, Pt, Y",3,0.020108794166660005,Cubic,225,Fm-3m,0.0,True,True,0.590148286450109,Ca: 0.2500; Y: 0.2500; Pt: 0.5000
mp-865898,TiZnCo2,"Co, Ti, Zn",3,0.0,Cubic,225,Fm-3m,0.0,True,True,0.14771171246722442,Ti: 0.2500; Zn: 0.2500; Co: 0.5000
mp-973153,ScAlPt2,"Al, Pt, Sc",3,0.019959054374998786,Cubic,225,Fm-3m,0.0,True,True,0.4072084846856704,Sc: 0.2500; Al: 0.2500; Pt: 0.5000
mp-975609,Li2TlPb,"Li, Pb, Tl",3,9.979750000077559e-05,Cubic,225,Fm-3m,0.0,True,True,0.5572420928106563,Li: 0.5000; Tl: 0.2500; Pb: 0.2500
mp-979288,Ta2NbRh,"Nb, Rh, Ta",3,0.0,Cubic,225,Fm-3m,0.0,True,True,0.3258834147360064,Ta: 0.5000; Nb: 0.2500; Rh: 0.2500