material_id,formula,elements,num_elements,energy_above_hull,crystal_system,spacegroup_number,spacegroup_symbol,band_gap,theoretical,is_metal,electronegativity_difference,atomic_concentrations
mp-1215517,Zr2MnFe3,"Fe, Mn, Zr",3,0.0014092299999983737,Trigonal,166,R-3m,0.0,True,True,0.22558565754251508,Zr: 0.3333; Mn: 0.1667; Fe: 0.5000
mp-1215491,Zr2Al3Cr,"Al, Cr, Zr",3,0.06547847083333558,Trigonal,166,R-3m,0.0,True,True,0.13901438774457842,Zr: 0.3333; Al: 0.5000; Cr: 0.1667
mp-1228746,Ca43Al16Pb13,"Al, Ca, Pb",3,0.0,Trigonal,166,R-3m,0.23899999999999988,True,False,0.5108104301251996,Ca: 0.5972; Al: 0.2222; Pb: 0.1806
mp-11430,Ca3Al7Ag2,"Ag, Al, Ca",3,0.0,Trigonal,166,R-3m,0.0,False,True,0.31663486682437375,Ca: 0.2500; Al: 0.5833; Ag: 0.1667
mp-12695,CaMg2Ni9,"Ca, Mg, Ni",3,0.0034315595833342982,Trigonal,166,R-3m,0.0,False,True,0.3131947831976487,Ca: 0.0833; Mg: 0.1667; Ni: 0.7500
mp-1102168,VCo2Ni,"Co, Ni, V",3,0.0,Trigonal,166,R-3m,0.0,False,True,0.11324751652906125,V: 0.2500; Co: 0.5000; Ni: 0.2500
mp-510696,Cs4Sn2Au7,"Au, Cs, Sn",3,0.0,Trigonal,166,R-3m,0.0,False,True,0.7746379188533464,Cs: 0.3077; Sn: 0.1538; Au: 0.5385
mp-1222119,MgAlCu,"Al, Cu, Mg",3,0.09234838444444415,Trigonal,166,R-3m,0.0,True,True,0.2408780235351955,Mg: 0.3333; Al: 0.3333; Cu: 0.3333
mp-10876,Ca3Al7Cu2,"Al, Ca, Cu",3,0.0,Trigonal,166,R-3m,0.0,False,True,0.3101466946820846,Ca: 0.2500; Al: 0.5833; Cu: 0.1667
mp-570946,Na2Li5Sn4,"Li, Na, Sn",3,0.08938600931818153,Trigonal,166,R-3m,0.0,False,True,0.4786361478027658,Na: 0.1818; Li: 0.4545; Sn: 0.3636
mp-1221827,Mn3Ni4Sn,"Mn, Ni, Sn",3,0.0332546576957613,Trigonal,166,R-3m,0.0,True,True,0.17982196056099484,Mn: 0.3750; Ni: 0.5000; Sn: 0.1250
mp-1222143,Mg3InAg4,"Ag, In, Mg",3,0.002334178749999971,Trigonal,166,R-3m,0.0,True,True,0.28954436188605015,Mg: 0.3750; In: 0.1250; Ag: 0.5000
mp-1222617,Li2ZnCu3,"Cu, Li, Zn",3,0.0,Trigonal,166,R-3m,0.0,True,True,0.4137800005907594,Li: 0.3333; Zn: 0.1667; Cu: 0.5000
mp-1215442,Zr2Al3Zn,"Al, Zn, Zr",3,0.0,Trigonal,166,R-3m,0.0,True,True,0.13743685418725535,Zr: 0.3333; Al: 0.5000; Zn: 0.1667
mp-5134,LaMg2Ni9,"La, Mg, Ni",3,0.004644421041666291,Trigonal,166,R-3m,0.0,False,True,0.2943106352138841,La: 0.0833; Mg: 0.1667; Ni: 0.7500
mp-1215484,Zr2CoMo3,"Co, Mo, Zr",3,0.05672562125000091,Trigonal,166,R-3m,0.0,True,True,0.37169282419163757,Zr: 0.3333; Co: 0.1667; Mo: 0.5000
mp-1223215,La2MgAl3,"Al, La, Mg",3,0.010707832638888526,Trigonal,166,R-3m,0.0,True,True,0.23086792761230393,La: 0.3333; Mg: 0.1667; Al: 0.5000
mp-1221707,Mn9Al4V3,"Al, Mn, V",3,0.024989250258620643,Trigonal,166,R-3m,0.0,True,True,0.03464101615137752,Mn: 0.5625; Al: 0.2500; V: 0.1875
mp-1215528,Zr2Co3Mo,"Co, Mo, Zr",3,0.02368716041666552,Trigonal,166,R-3m,0.0,True,True,0.30858098162754977,Zr: 0.3333; Co: 0.5000; Mo: 0.1667
mp-568925,Ni2Sn4Au,"Au, Ni, Sn",3,0.0,Trigonal,166,R-3m,0.0,False,True,0.20992710104963117,Ni: 0.2857; Sn: 0.5714; Au: 0.1429
mp-1221903,Mn7Ni8Sn,"Mn, Ni, Sn",3,0.03391757627604086,Trigonal,166,R-3m,0.0,True,True,0.18172674369778374,Mn: 0.4375; Ni: 0.5000; Sn: 0.0625
mp-1217066,Ti2Be3Ga,"Be, Ga, Ti",3,0.03679994556372623,Trigonal,166,R-3m,0.0,True,True,0.09486832980505137,Ti: 0.3333; Be: 0.5000; Ga: 0.1667
mp-1222087,Mn3Sn2Pd5,"Mn, Pd, Sn",3,0.011475691500000273,Trigonal,166,R-3m,0.0,True,True,0.28146225324188684,Mn: 0.3000; Sn: 0.2000; Pd: 0.5000
mp-1095547,ZrTi2Ni9,"Ni, Ti, Zr",3,0.021075320833333855,Trigonal,166,R-3m,0.0,False,True,0.19685019685029523,Zr: 0.0833; Ti: 0.1667; Ni: 0.7500
mp-1223828,Hf2Al3Ni,"Al, Hf, Ni",3,0.011862266111108966,Trigonal,166,R-3m,0.0,True,True,0.21021153367236745,Hf: 0.3333; Al: 0.5000; Ni: 0.1667
mp-1222673,Li2GaCu3,"Cu, Ga, Li",3,0.0,Trigonal,166,R-3m,0.0,True,True,0.4242804366087233,Li: 0.3333; Ga: 0.1667; Cu: 0.5000
mp-1217985,Ta2MnV3,"Mn, Ta, V",3,0.0,Trigonal,166,R-3m,0.0,True,True,0.05906681715556445,Ta: 0.3333; Mn: 0.1667; V: 0.5000
mp-571021,K5InPb8,"In, K, Pb",3,0.0,Trigonal,166,R-3m,0.0,False,True,0.7079432699513344,K: 0.3571; In: 0.0714; Pb: 0.5714
mp-1221708,Mn5Al2V,"Al, Mn, V",3,0.03131494051724193,Trigonal,166,R-3m,0.0,True,True,0.03278719262150998,Mn: 0.6250; Al: 0.2500; V: 0.1250
mp-1216110,Y2AlFe3,"Al, Fe, Y",3,0.017144406826924197,Trigonal,166,R-3m,0.0,True,True,0.27294688127912364,Y: 0.3333; Al: 0.1667; Fe: 0.5000
mp-1216136,Y2AlCo3,"Al, Co, Y",3,0.04841851166666711,Trigonal,166,R-3m,0.0,True,True,0.29516944286290875,Y: 0.3333; Al: 0.1667; Co: 0.5000
mp-1190711,Sr2(ZnAu2)3,"Au, Sr, Zn",3,0.0,Trigonal,167,R-3c,0.0,False,True,0.7120842646765901,Sr: 0.4000; Zn: 0.2000; Au: 0.4000
mp-1191197,Sr2(GaAu2)3,"Au, Ga, Sr",3,0.0,Trigonal,167,R-3c,0.0,False,True,0.7115447983085816,Sr: 0.4000; Ga: 0.2000; Au: 0.4000
mp-1078304,Ca2AlPd2,"Al, Ca, Pd",3,0.0,Monoclinic,15,C2/c,0.0,False,True,0.536671221512762,Ca: 0.4000; Al: 0.2000; Pd: 0.4000
mp-1078428,Ca2GaPt2,"Ca, Ga, Pt",3,0.0,Monoclinic,15,C2/c,0.0,False,True,0.5764581511263415,Ca: 0.4000; Ga: 0.2000; Pt: 0.4000
mp-20393,Sr2InPt2,"In, Pt, Sr",3,0.0,Monoclinic,15,C2/c,0.0,False,True,0.5984446507405676,Sr: 0.4000; In: 0.2000; Pt: 0.4000
mp-1078362,Ca2AlPt2,"Al, Ca, Pt",3,0.0,Monoclinic,15,C2/c,0.0,False,True,0.5725591672482416,Ca: 0.4000; Al: 0.2000; Pt: 0.4000
mp-581814,Ca21(Mn2Bi9)2,"Bi, Ca, Mn",3,0.04239299840563593,Monoclinic,15,C2/c,0.0,False,True,0.45641777737068917,Ca: 0.6562; Mn: 0.0625; Bi: 0.2812
mp-20792,Ca2InPd2,"Ca, In, Pd",3,0.0,Monoclinic,15,C2/c,0.0,False,True,0.541464680288567,Ca: 0.4000; In: 0.2000; Pd: 0.4000
mp-20843,Sr2InPd2,"In, Pd, Sr",3,0.0,Monoclinic,15,C2/c,0.0,False,True,0.5649991150435548,Sr: 0.4000; In: 0.2000; Pd: 0.4000
mp-1078280,Ca2GaPd2,"Ca, Ga, Pd",3,0.0,Monoclinic,15,C2/c,0.0,False,True,0.5431905742923013,Ca: 0.4000; Ga: 0.2000; Pd: 0.4000
mp-1211291,Na20Zn7Sn12,"Na, Sn, Zn",3,0.0,Monoclinic,15,C2/c,0.022800000000000153,True,False,0.4694929910435865,Na: 0.5128; Zn: 0.1795; Sn: 0.3077
mp-1104604,Na2SrSn4,"Na, Sn, Sr",3,0.0,Monoclinic,15,C2/c,0.0,False,True,0.5064562756879151,Na: 0.2857; Sr: 0.1429; Sn: 0.5714
mp-680450,K2LiSn4,"K, Li, Sn",3,0.0,Monoclinic,15,C2/c,0.6936999999999998,False,False,0.5400226752608804,K: 0.2857; Li: 0.1429; Sn: 0.5714
mp-1196249,Ti11Ni9Pt4,"Ni, Pt, Ti",3,0.00854423739583332,Monoclinic,15,C2/c,0.0,True,True,0.2718758780317877,Ti: 0.4583; Ni: 0.3750; Pt: 0.1667
mp-21885,Ca2InPt2,"Ca, In, Pt",3,0.0,Monoclinic,15,C2/c,0.0,False,True,0.575166062976598,Ca: 0.4000; In: 0.2000; Pt: 0.4000
mp-571626,Mg3Ga7Co2,"Co, Ga, Mg",3,0.0,Monoclinic,15,C2/c,0.0,False,True,0.22466023729672815,Mg: 0.2500; Ga: 0.5833; Co: 0.1667
mp-1222193,Mg4CuNi,"Cu, Mg, Ni",3,0.0,Hexagonal,180,P6_222,0.0,True,True,0.2805005446617805,Mg: 0.6667; Cu: 0.1667; Ni: 0.1667
mp-1208338,TiMnSn4,"Mn, Sn, Ti",3,0.026144843819445818,Hexagonal,180,P6_222,0.0,True,True,0.19565417336605814,Ti: 0.1667; Mn: 0.1667; Sn: 0.6667
mp-1220866,NaSn2Pd3,"Na, Pd, Sn",3,0.0,Hexagonal,183,P6mm,0.0,True,True,0.45049663952378405,Na: 0.1667; Sn: 0.3333; Pd: 0.5000
mp-1202432,K3Mg18Pb11,"K, Mg, Pb",3,0.00249030843749809,Hexagonal,176,P6_3/m,0.0,False,True,0.5360153004754156,K: 0.0938; Mg: 0.5625; Pb: 0.3438
mp-1204087,K3Mg18Sn11,"K, Mg, Sn",3,0.008862562395832718,Hexagonal,176,P6_3/m,0.0,False,True,0.36910364398092843,K: 0.0938; Mg: 0.5625; Sn: 0.3438
mp-1212154,La23Cd4Ir7,"Cd, Ir, La",3,0.0,Hexagonal,186,P6_3mc,0.0,True,True,0.4500269119211508,La: 0.6765; Cd: 0.1176; Ir: 0.2059
mp-1211976,La23Mg4Ir7,"Ir, La, Mg",3,0.0,Hexagonal,186,P6_3mc,0.0,True,True,0.4372828180660413,La: 0.6765; Mg: 0.1176; Ir: 0.2059
mp-1019104,CaSnHg,"Ca, Hg, Sn",3,0.0,Hexagonal,186,P6_3mc,0.0,False,True,0.4622649552895924,Ca: 0.3333; Sn: 0.3333; Hg: 0.3333
mp-1192970,Y8In3Co,"Co, In, Y",3,0.0,Hexagonal,186,P6_3mc,0.010799999999999699,False,False,0.27690250992000776,Y: 0.6667; In: 0.2500; Co: 0.0833
mp-570297,La23Mg4Rh7,"La, Mg, Rh",3,0.0,Hexagonal,186,P6_3mc,0.0,False,True,0.46928016731215677,La: 0.6765; Mg: 0.1176; Rh: 0.2059
mp-20865,YCuPb,"Cu, Pb, Y",3,0.0,Hexagonal,186,P6_3mc,0.0,False,True,0.4569707017109764,Y: 0.3333; Cu: 0.3333; Pb: 0.3333
mp-13203,ScCuSn,"Cu, Sc, Sn",3,0.0,Hexagonal,186,P6_3mc,0.0,True,True,0.2698147512646408,Sc: 0.3333; Cu: 0.3333; Sn: 0.3333
mp-13202,YCuSn,"Cu, Sn, Y",3,0.0,Hexagonal,186,P6_3mc,0.0,True,True,0.33559234529741916,Y: 0.3333; Cu: 0.3333; Sn: 0.3333
mp-1096880,CaZnPb,"Ca, Pb, Zn",3,0.0004543849999980587,Hexagonal,186,P6_3mc,0.0,True,True,0.5430162674051917,Ca: 0.3333; Zn: 0.3333; Pb: 0.3333
mp-19983,TiCuSn,"Cu, Sn, Ti",3,0.010317087604160946,Hexagonal,186,P6_3mc,0.0,False,True,0.18547236990991403,Ti: 0.3333; Cu: 0.3333; Sn: 0.3333
mp-1018713,HfCuSn,"Cu, Hf, Sn",3,0.0,Hexagonal,186,P6_3mc,0.0,False,True,0.2979932885150267,Hf: 0.3333; Cu: 0.3333; Sn: 0.3333
mp-13406,LaAgPb,"Ag, La, Pb",3,0.0,Hexagonal,186,P6_3mc,0.0,False,True,0.51227162933567,La: 0.3333; Ag: 0.3333; Pb: 0.3333
mp-1071260,LaSnAu,"Au, La, Sn",3,0.0,Hexagonal,186,P6_3mc,0.0,False,True,0.591570414706107,La: 0.3333; Sn: 0.3333; Au: 0.3333
mp-31160,CaZnSn,"Ca, Sn, Zn",3,0.0,Hexagonal,186,P6_3mc,0.0,False,True,0.40002777681333856,Ca: 0.3333; Zn: 0.3333; Sn: 0.3333
mp-1212070,La23Cd4Rh7,"Cd, La, Rh",3,0.0,Hexagonal,186,P6_3mc,0.0,True,True,0.47964483688472337,La: 0.6765; Cd: 0.1176; Rh: 0.2059
mp-567446,La23Cd4Pt7,"Cd, La, Pt",3,0.00020547941176740636,Hexagonal,186,P6_3mc,0.0,False,True,0.47964483688472337,La: 0.6765; Cd: 0.1176; Pt: 0.2059
mp-1025128,LaCuPb,"Cu, La, Pb",3,0.0,Hexagonal,186,P6_3mc,0.0,True,True,0.5096621974951208,La: 0.3333; Cu: 0.3333; Pb: 0.3333
mp-1019277,SrHgPb,"Hg, Pb, Sr",3,0.0,Hexagonal,186,P6_3mc,0.0,False,True,0.588387627334226,Sr: 0.3333; Hg: 0.3333; Pb: 0.3333
mp-1212033,La23Mg4Pt7,"La, Mg, Pt",3,0.0,Hexagonal,186,P6_3mc,0.0,True,True,0.46928016731215677,La: 0.6765; Mg: 0.1176; Pt: 0.2059
mp-1192625,Sr3(Cu2Sn)4,"Cu, Sn, Sr",3,0.032248582666667414,Hexagonal,186,P6_3mc,0.0,False,True,0.48541219597368995,Sr: 0.5000; Cu: 0.3333; Sn: 0.1667
mp-21677,Ca3(InNi2)4,"Ca, In, Ni",3,0.0,Hexagonal,186,P6_3mc,0.0,False,True,0.4354946102485719,Ca: 0.5000; In: 0.1667; Ni: 0.3333
mp-581781,La23Mg4Ni7,"La, Mg, Ni",3,0.0,Hexagonal,186,P6_3mc,0.0,False,True,0.3218798858264585,La: 0.6765; Mg: 0.1176; Ni: 0.2059
mp-504790,LiYSn,"Li, Sn, Y",3,0.0,Hexagonal,186,P6_3mc,0.0,True,True,0.41707979518978805,Li: 0.3333; Y: 0.3333; Sn: 0.3333
mp-6919,ScSnAu,"Au, Sc, Sn",3,0.06907755499999979,Hexagonal,186,P6_3mc,0.0,True,True,0.48175604707039105,Sc: 0.3333; Sn: 0.3333; Au: 0.3333
mp-1213625,La23Cd4Ni7,"Cd, La, Ni",3,0.0,Hexagonal,186,P6_3mc,0.0,True,True,0.34677518319750167,La: 0.6765; Cd: 0.1176; Ni: 0.2059
mp-1102046,MnInCu4,"Cu, In, Mn",3,0.05190865978927306,Hexagonal,186,P6_3mc,0.0,False,True,0.12915322510706242,Mn: 0.1667; In: 0.1667; Cu: 0.6667
mp-570710,Ca3(Cu2Sn)4,"Ca, Cu, Sn",3,0.0,Hexagonal,186,P6_3mc,0.0,False,True,0.4604345773288535,Ca: 0.5000; Cu: 0.3333; Sn: 0.1667
mp-568664,CaAgBi,"Ag, Bi, Ca",3,0.0,Hexagonal,186,P6_3mc,0.0,False,True,0.46108567533594014,Ca: 0.3333; Ag: 0.3333; Bi: 0.3333
mp-567197,YSnAu,"Au, Sn, Y",3,0.0,Hexagonal,186,P6_3mc,0.0,False,True,0.5402057221302106,Y: 0.3333; Sn: 0.3333; Au: 0.3333
mp-1018657,CaBiAu,"Au, Bi, Ca",3,0.047790710000003234,Hexagonal,186,P6_3mc,0.0,False,True,0.6396526835365858,Ca: 0.3333; Bi: 0.3333; Au: 0.3333
mp-1019259,SrSnHg,"Hg, Sn, Sr",3,0.0,Hexagonal,186,P6_3mc,0.0,False,True,0.4858211833815218,Sr: 0.3333; Sn: 0.3333; Hg: 0.3333
mp-5729,YAgSn,"Ag, Sn, Y",3,0.0,Hexagonal,186,P6_3mc,0.0,False,True,0.34198765409814946,Y: 0.3333; Ag: 0.3333; Sn: 0.3333
mp-31301,LiSn4Au3,"Au, Li, Sn",3,0.0,Hexagonal,186,P6_3mc,0.0,False,True,0.48700616012531095,Li: 0.1250; Sn: 0.5000; Au: 0.3750
mp-22379,Y3(Co2Sn)4,"Co, Sn, Y",3,0.021100312999996262,Hexagonal,186,P6_3mc,0.0,False,True,0.34436737489037617,Y: 0.5000; Co: 0.3333; Sn: 0.1667
mp-1026423,Mg14GaBi,"Bi, Ga, Mg",3,0.04807171265624954,Hexagonal,187,P-6m2,0.0,True,True,0.20349965448373614,Mg: 0.8750; Ga: 0.0625; Bi: 0.0625
mp-1027950,YMg14Ga,"Ga, Mg, Y",3,0.09872407739583355,Hexagonal,187,P-6m2,0.0,True,True,0.12439698298190355,Y: 0.0625; Mg: 0.8750; Ga: 0.0625
mp-1222082,Mg6CdIn,"Cd, In, Mg",3,0.008000766249999014,Hexagonal,187,P-6m2,0.0,True,True,0.18540074838036655,Mg: 0.7500; Cd: 0.1250; In: 0.1250
mp-1028087,YMg14Cu,"Cu, Mg, Y",3,0.08753971737500033,Hexagonal,187,P-6m2,0.0,True,True,0.14589700990767424,Y: 0.0625; Mg: 0.8750; Cu: 0.0625
mp-568967,Ba5Ga5Sn,"Ba, Ga, Sn",3,0.0,Hexagonal,187,P-6m2,0.0,False,True,0.472351249050258,Ba: 0.4545; Ga: 0.4545; Sn: 0.0909
mp-2479693,LiCaSn,"Ca, Li, Sn",3,0.00020515333333426256,Hexagonal,187,P-6m2,0.0,True,True,0.4573352769637999,Li: 0.3333; Ca: 0.3333; Sn: 0.3333
mp-1026790,LiMg14Bi,"Bi, Li, Mg",3,0.08528092718749991,Hexagonal,187,P-6m2,0.0,True,True,0.19428957125898447,Li: 0.0625; Mg: 0.8750; Bi: 0.0625
mp-1026496,Mg14CrCd,"Cd, Cr, Mg",3,0.09419724843750021,Hexagonal,187,P-6m2,0.0,True,True,0.12082884330738249,Mg: 0.8750; Cr: 0.0625; Cd: 0.0625
mp-1026818,SrLiMg14,"Li, Mg, Sr",3,0.09111893687499983,Hexagonal,187,P-6m2,0.0,True,True,0.11422120807888526,Sr: 0.0625; Li: 0.0625; Mg: 0.8750
mp-568168,Rb(In3Au2)2,"Au, In, Rb",3,0.0,Hexagonal,187,P-6m2,0.0,False,True,0.580880557621119,Rb: 0.1667; In: 0.5000; Au: 0.3333
mp-1026441,Mg14CdBi,"Bi, Cd, Mg",3,0.03964606265624959,Hexagonal,187,P-6m2,0.0,True,True,0.1894471809634548,Mg: 0.8750; Cd: 0.0625; Bi: 0.0625
mp-1225049,K18Na46Tl31,"K, Na, Tl",3,0.0,Hexagonal,187,P-6m2,0.0,True,True,0.3404506383003469,K: 0.1895; Na: 0.4842; Tl: 0.3263
mp-1222930,LaAlCo4,"Al, Co, La",3,0.0770598822826063,Hexagonal,187,P-6m2,0.0,True,True,0.28796701199963853,La: 0.1667; Al: 0.1667; Co: 0.6667
mp-1028190,CaMg14Al,"Al, Ca, Mg",3,0.07715127109375008,Hexagonal,187,P-6m2,0.0,True,True,0.10784646204210875,Ca: 0.0625; Mg: 0.8750; Al: 0.0625
mp-1028381,LiMg14Ni,"Li, Mg, Ni",3,0.08339407333333337,Hexagonal,187,P-6m2,0.0,True,True,0.17035693227749787,Li: 0.0625; Mg: 0.8750; Ni: 0.0625
mp-1218356,SrAlGa,"Al, Ga, Sr",3,0.0,Hexagonal,187,P-6m2,0.0,True,True,0.3674537007872179,Sr: 0.3333; Al: 0.3333; Ga: 0.3333
mp-1028028,YMg14Sn,"Mg, Sn, Y",3,0.09152008661931799,Hexagonal,187,P-6m2,0.0,True,True,0.16027320424824604,Y: 0.0625; Mg: 0.8750; Sn: 0.0625
mp-1028164,CaMg14Zr,"Ca, Mg, Zr",3,0.08008729093750011,Hexagonal,187,P-6m2,0.0,True,True,0.07551645102227728,Ca: 0.0625; Mg: 0.8750; Zr: 0.0625
mp-570807,Sr4In13Au9,"Au, In, Sr",3,0.0,Hexagonal,187,P-6m2,0.0,False,True,0.5362779902627337,Sr: 0.1538; In: 0.5000; Au: 0.3462
mp-1028338,Mg14GaNi,"Ga, Mg, Ni",3,0.07914495062500038,Hexagonal,187,P-6m2,0.0,True,True,0.18275239396516804,Mg: 0.8750; Ga: 0.0625; Ni: 0.0625
mp-1028265,LiMg14Sn,"Li, Mg, Sn",3,0.05141712921874997,Hexagonal,187,P-6m2,0.0,True,True,0.18114220932736796,Li: 0.0625; Mg: 0.8750; Sn: 0.0625
mp-1217583,Ti2VNi9,"Ni, Ti, V",3,0.023292617500000112,Hexagonal,187,P-6m2,0.0,True,True,0.14874474780643512,Ti: 0.1667; V: 0.0833; Ni: 0.7500
mp-1227950,BaAlSn,"Al, Ba, Sn",3,0.026085831875002796,Hexagonal,187,P-6m2,0.0,True,True,0.4454460935087681,Ba: 0.3333; Al: 0.3333; Sn: 0.3333
mp-1217832,TaTiNi6,"Ni, Ta, Ti",3,0.010734950000001575,Hexagonal,187,P-6m2,0.0,True,True,0.16917077170717165,Ta: 0.1250; Ti: 0.1250; Ni: 0.7500
mp-1028035,LaYMg14,"La, Mg, Y",3,0.08354762875000077,Hexagonal,187,P-6m2,0.0,True,True,0.053953104637268094,La: 0.0625; Y: 0.0625; Mg: 0.8750
mp-1028081,YMg14Zn,"Mg, Y, Zn",3,0.07323832302083355,Hexagonal,187,P-6m2,0.0,True,True,0.08652808431370704,Y: 0.0625; Mg: 0.8750; Zn: 0.0625
mp-1217983,TaCo6Mo,"Co, Mo, Ta",3,0.014388695208333857,Hexagonal,187,P-6m2,0.0,True,True,0.16641439240642622,Ta: 0.1250; Co: 0.7500; Mo: 0.1250
mp-1222791,LaZnNi4,"La, Ni, Zn",3,0.0,Hexagonal,187,P-6m2,0.0,True,True,0.29801659163356803,La: 0.1667; Zn: 0.1667; Ni: 0.6667
mp-1026857,NaMg14Cu,"Cu, Mg, Na",3,0.08826056105071878,Hexagonal,187,P-6m2,0.0,True,True,0.17495423508735075,Na: 0.0625; Mg: 0.8750; Cu: 0.0625
mp-20998,LiCaPb,"Ca, Li, Pb",3,0.0,Hexagonal,187,P-6m2,0.0,False,True,0.6317348248188388,Li: 0.3333; Ca: 0.3333; Pb: 0.3333
mp-1026397,Mg14NbSn,"Mg, Nb, Sn",3,0.0932665591666666,Hexagonal,187,P-6m2,0.0,True,True,0.16796111901270483,Mg: 0.8750; Nb: 0.0625; Sn: 0.0625
mp-1028177,LiCaMg14,"Ca, Li, Mg",3,0.06011858593749975,Hexagonal,187,P-6m2,0.0,True,True,0.10588909292273688,Li: 0.0625; Ca: 0.0625; Mg: 0.8750
mp-605650,Ba5Ga5Pb,"Ba, Ga, Pb",3,0.0,Hexagonal,187,P-6m2,0.0,False,True,0.5212825886120528,Ba: 0.4545; Ga: 0.4545; Pb: 0.0909
mp-1027966,Mg14ZrZn,"Mg, Zn, Zr",3,0.07167823125000039,Hexagonal,187,P-6m2,0.0,True,True,0.08212033852828418,Mg: 0.8750; Zr: 0.0625; Zn: 0.0625
mp-1027982,Mg14ZnSn,"Mg, Sn, Zn",3,0.035315535600000114,Hexagonal,187,P-6m2,0.0,True,True,0.17263468473919136,Mg: 0.8750; Zn: 0.0625; Sn: 0.0625
mp-1217197,Ti3AlNi12,"Al, Ni, Ti",3,0.005218928437499493,Hexagonal,187,P-6m2,0.0,True,True,0.15338753005052264,Ti: 0.1875; Al: 0.0625; Ni: 0.7500
mp-1218855,Sr2AlGa3,"Al, Ga, Sr",3,0.001553554999999207,Hexagonal,187,P-6m2,0.0,True,True,0.38832975677895204,Sr: 0.3333; Al: 0.1667; Ga: 0.5000
mp-1028071,Mg14MnBi,"Bi, Mg, Mn",3,0.09187164747305987,Hexagonal,187,P-6m2,0.0,True,True,0.17771004297731738,Mg: 0.8750; Mn: 0.0625; Bi: 0.0625
mp-1222733,LaZn4Ni,"La, Ni, Zn",3,0.001105012583334286,Hexagonal,187,P-6m2,0.0,True,True,0.24361285315480008,La: 0.1667; Zn: 0.6667; Ni: 0.1667
mp-1026776,LiMg14Ga,"Ga, Li, Mg",3,0.041185260187499795,Hexagonal,187,P-6m2,0.0,True,True,0.1493933043178308,Li: 0.0625; Mg: 0.8750; Ga: 0.0625
mp-1026839,NaLiMg14,"Li, Mg, Na",3,0.057023123653017205,Hexagonal,187,P-6m2,0.0,True,True,0.11773745952329702,Na: 0.0625; Li: 0.0625; Mg: 0.8750
mp-1206734,LiInPt,"In, Li, Pt",3,0.03249917777777611,Hexagonal,187,P-6m2,0.0,True,True,0.5354126134736336,Li: 0.3333; In: 0.3333; Pt: 0.3333
mp-1027718,LiMg14Co,"Co, Li, Mg",3,0.09657993114583352,Hexagonal,187,P-6m2,0.0,True,True,0.16397408331806582,Li: 0.0625; Mg: 0.8750; Co: 0.0625
mp-1026769,LiHfMg14,"Hf, Li, Mg",3,0.08006977874999999,Hexagonal,187,P-6m2,0.0,True,True,0.07975548570474637,Li: 0.0625; Hf: 0.0625; Mg: 0.8750
mp-1028180,CaLaMg14,"Ca, La, Mg",3,0.08249372249999998,Hexagonal,187,P-6m2,0.0,True,True,0.08778524933039719,Ca: 0.0625; La: 0.0625; Mg: 0.8750
mp-1028331,Mg14CdNi,"Cd, Mg, Ni",3,0.07195187239583323,Hexagonal,187,P-6m2,0.0,True,True,0.16665364532466725,Mg: 0.8750; Cd: 0.0625; Ni: 0.0625
mp-568809,Ba5Al5Pb,"Al, Ba, Pb",3,0.0,Hexagonal,187,P-6m2,0.0,False,True,0.46283352950392204,Ba: 0.4545; Al: 0.4545; Pb: 0.0909
mp-1222879,LaMnNi4,"La, Mn, Ni",3,0.03347835617816486,Hexagonal,187,P-6m2,0.0,True,True,0.30483602149352357,La: 0.1667; Mn: 0.1667; Ni: 0.6667
mp-1028037,NaYMg14,"Mg, Na, Y",3,0.06644230522629324,Hexagonal,187,P-6m2,0.0,True,True,0.09310402448337021,Na: 0.0625; Y: 0.0625; Mg: 0.8750
mp-1215961,YFeNi4,"Fe, Ni, Y",3,0.05261772791666708,Hexagonal,187,P-6m2,0.0,True,True,0.2528778800571972,Y: 0.1667; Fe: 0.1667; Ni: 0.6667
mp-1028325,Mg14NiBi,"Bi, Mg, Ni",3,0.08804571067708311,Hexagonal,187,P-6m2,0.0,True,True,0.21749191795328854,Mg: 0.8750; Ni: 0.0625; Bi: 0.0625
mp-1026584,Mg14CdSn,"Cd, Mg, Sn",3,0.02585633593749992,Hexagonal,187,P-6m2,0.0,True,True,0.17688162531761176,Mg: 0.8750; Cd: 0.0625; Sn: 0.0625
mp-1026555,SrMg14Cd,"Cd, Mg, Sr",3,0.09305279750000017,Hexagonal,187,P-6m2,0.0,True,True,0.13085655314121641,Sr: 0.0625; Mg: 0.8750; Cd: 0.0625
mp-1026652,NaMg14Ga,"Ga, Mg, Na",3,0.061918014601293425,Hexagonal,187,P-6m2,0.0,True,True,0.15682394587562196,Na: 0.0625; Mg: 0.8750; Ga: 0.0625
mp-1028092,LiMg14Mn,"Li, Mg, Mn",3,0.08780831950431045,Hexagonal,187,P-6m2,0.0,True,True,0.10185582641655805,Li: 0.0625; Mg: 0.8750; Mn: 0.0625
mp-1026512,Mg14NbCd,"Cd, Mg, Nb",3,0.08936350843750018,Hexagonal,187,P-6m2,0.0,True,True,0.11192736204789246,Mg: 0.8750; Nb: 0.0625; Cd: 0.0625
mp-1028208,LiMg14Al,"Al, Li, Mg",3,0.042839436250000196,Hexagonal,187,P-6m2,0.0,True,True,0.11147974872146063,Li: 0.0625; Mg: 0.8750; Al: 0.0625
mp-1028236,Mg14AlBi,"Al, Bi, Mg",3,0.048194209661458265,Hexagonal,187,P-6m2,0.0,True,True,0.18206175978222336,Mg: 0.8750; Al: 0.0625; Bi: 0.0625