material_id,formula,elements,num_elements,energy_above_hull,crystal_system,spacegroup_number,spacegroup_symbol,band_gap,theoretical,is_metal,electronegativity_difference,atomic_concentrations
mp-1087487,Hf6Ga2Fe,"Fe, Ga, Hf",3,0.0,Hexagonal,189,P-62m,0.0,False,True,0.24361982120498862,Hf: 0.6667; Ga: 0.2222; Fe: 0.1111
mp-13092,Zr6Al2Ni,"Al, Ni, Zr",3,0.016527299999999023,Hexagonal,189,P-62m,0.0,True,True,0.19686430746977865,Zr: 0.6667; Al: 0.2222; Ni: 0.1111
mp-1079843,LaMgAg,"Ag, La, Mg",3,0.0,Hexagonal,189,P-62m,0.0,False,True,0.3523571420527126,La: 0.3333; Mg: 0.3333; Ag: 0.3333
mp-1084775,ScSnPt,"Pt, Sc, Sn",3,0.006596386666665843,Hexagonal,189,P-62m,0.0,False,True,0.381342657228669,Sc: 0.3333; Sn: 0.3333; Pt: 0.3333
mp-1206674,YCdAu,"Au, Cd, Y",3,0.0,Hexagonal,189,P-62m,0.0,True,True,0.546280351305282,Y: 0.3333; Cd: 0.3333; Au: 0.3333
mp-30754,LaTlPd,"La, Pd, Tl",3,0.0,Hexagonal,189,P-62m,0.0,False,True,0.44929574521317994,La: 0.3333; Tl: 0.3333; Pd: 0.3333
mp-1080654,LaPdPb,"La, Pb, Pd",3,0.0,Hexagonal,189,P-62m,0.0,False,True,0.5517447074709664,La: 0.3333; Pd: 0.3333; Pb: 0.3333
mp-1247807,Hf6Ga2Co,"Co, Ga, Hf",3,0.006139018888887904,Hexagonal,189,P-62m,0.0,False,True,0.2521365493262982,Hf: 0.6667; Ga: 0.2222; Co: 0.1111
mp-1079246,ZrGaCo,"Co, Ga, Zr",3,0.0,Hexagonal,189,P-62m,0.0,False,True,0.24444949489732132,Zr: 0.3333; Ga: 0.3333; Co: 0.3333
mp-31235,BaNaBi,"Ba, Bi, Na",3,0.0,Hexagonal,189,P-62m,0.23550000000000004,False,False,0.523513769319076,Ba: 0.3333; Na: 0.3333; Bi: 0.3333
mp-11073,Ti3In3Rh2,"In, Rh, Ti",3,0.0,Hexagonal,189,P-62m,0.0,False,True,0.28788018340969557,Ti: 0.3750; In: 0.3750; Rh: 0.2500
mp-12378,LaSnRh,"La, Rh, Sn",3,0.0,Hexagonal,189,P-62m,0.0,False,True,0.49826365176146103,La: 0.3333; Sn: 0.3333; Rh: 0.3333
mp-542251,LaCdAu,"Au, Cd, La",3,0.0,Hexagonal,189,P-62m,0.0,False,True,0.5910630724005311,La: 0.3333; Cd: 0.3333; Au: 0.3333
mp-672299,YInNi,"In, Ni, Y",3,0.0,Hexagonal,189,P-62m,0.0,False,True,0.2993697082575694,Y: 0.3333; In: 0.3333; Ni: 0.3333
mp-20935,ZrSnIr,"Ir, Sn, Zr",3,0.01863639000000461,Hexagonal,189,P-62m,0.0,False,True,0.3668787265568828,Zr: 0.3333; Sn: 0.3333; Ir: 0.3333
mp-30737,YMgAg,"Ag, Mg, Y",3,0.0,Hexagonal,189,P-62m,0.0,False,True,0.3156298817004217,Y: 0.3333; Mg: 0.3333; Ag: 0.3333
mp-31297,ScInPt,"In, Pt, Sc",3,0.0,Hexagonal,189,P-62m,0.0,False,True,0.37606146069787866,Sc: 0.3333; In: 0.3333; Pt: 0.3333
mp-20451,LaInPt,"In, La, Pt",3,0.0,Hexagonal,189,P-62m,0.0,False,True,0.4835976288885901,La: 0.3333; In: 0.3333; Pt: 0.3333
mp-1080495,ZrGaPt,"Ga, Pt, Zr",3,0.013046163888892792,Hexagonal,189,P-62m,0.0,False,True,0.3878430381252474,Zr: 0.3333; Ga: 0.3333; Pt: 0.3333
mp-1078355,ScNiSn,"Ni, Sc, Sn",3,0.0,Hexagonal,189,P-62m,0.0,False,True,0.2718251071716681,Sc: 0.3333; Ni: 0.3333; Sn: 0.3333
mp-12696,YMgPd,"Mg, Pd, Y",3,0.0,Hexagonal,189,P-62m,0.0,False,True,0.4422920101270452,Y: 0.3333; Mg: 0.3333; Pd: 0.3333
mp-1080760,ZrAlPt,"Al, Pt, Zr",3,0.0,Hexagonal,189,P-62m,0.0,False,True,0.39858081572833703,Zr: 0.3333; Al: 0.3333; Pt: 0.3333
mp-623089,CaCdPb,"Ca, Cd, Pb",3,0.0,Hexagonal,189,P-62m,0.0,False,True,0.5430981085913995,Ca: 0.3333; Cd: 0.3333; Pb: 0.3333
mp-1079860,HfGaNi,"Ga, Hf, Ni",3,0.0,Hexagonal,189,P-62m,0.0,False,True,0.2671246067953223,Hf: 0.3333; Ga: 0.3333; Ni: 0.3333
mp-1080526,Zr6Ga2Fe,"Fe, Ga, Zr",3,0.0,Hexagonal,189,P-62m,0.0,False,True,0.2294814336608993,Zr: 0.6667; Ga: 0.2222; Fe: 0.1111
mp-1224408,Hf6Al2Co,"Al, Co, Hf",3,0.0,Hexagonal,189,P-62m,0.0,True,True,0.2023747898221405,Hf: 0.6667; Al: 0.2222; Co: 0.1111
mp-1078614,LaCdPd,"Cd, La, Pd",3,0.0,Hexagonal,189,P-62m,0.0,False,True,0.4494688223027513,La: 0.3333; Cd: 0.3333; Pd: 0.3333
mp-21503,YMgIn,"In, Mg, Y",3,0.0,Hexagonal,189,P-62m,0.0,False,True,0.2455379581427053,Y: 0.3333; Mg: 0.3333; In: 0.3333
mp-1208964,ScAgSn,"Ag, Sc, Sn",3,0.0002601872222207646,Hexagonal,189,P-62m,0.0,True,True,0.27604347483684516,Sc: 0.3333; Ag: 0.3333; Sn: 0.3333
mp-1078841,LaMgPd,"La, Mg, Pd",3,0.0,Hexagonal,189,P-62m,0.0,False,True,0.47681815774523056,La: 0.3333; Mg: 0.3333; Pd: 0.3333
mp-1080815,ZrSnRh,"Rh, Sn, Zr",3,0.01707066555555503,Hexagonal,189,P-62m,0.0,False,True,0.39465878370505764,Zr: 0.3333; Sn: 0.3333; Rh: 0.3333
mp-1205899,Zr6NiBi2,"Bi, Ni, Zr",3,0.0,Hexagonal,189,P-62m,0.0,True,True,0.30943596637099346,Zr: 0.6667; Ni: 0.1111; Bi: 0.2222
mp-1087485,YInPd,"In, Pd, Y",3,0.0,Hexagonal,189,P-62m,0.0,False,True,0.40144184579532266,Y: 0.3333; In: 0.3333; Pd: 0.3333
mp-11984,YMgTl,"Mg, Tl, Y",3,0.0,Hexagonal,189,P-62m,0.0,False,True,0.17133463034528534,Y: 0.3333; Mg: 0.3333; Tl: 0.3333
mp-1223449,LaGa2Ni3,"Ga, La, Ni",3,0.0,Hexagonal,189,P-62m,0.0,True,True,0.29042593242033704,La: 0.1667; Ga: 0.3333; Ni: 0.5000
mp-13090,YMgAl,"Al, Mg, Y",3,0.0,Hexagonal,189,P-62m,0.0,False,True,0.1667333200053307,Y: 0.3333; Mg: 0.3333; Al: 0.3333
mp-13534,LaZnNi,"La, Ni, Zn",3,0.0,Hexagonal,189,P-62m,0.0,False,True,0.3376717669901086,La: 0.3333; Zn: 0.3333; Ni: 0.3333
mp-21509,LaMgGa,"Ga, La, Mg",3,0.0,Hexagonal,189,P-62m,0.0,False,True,0.29780679792256065,La: 0.3333; Mg: 0.3333; Ga: 0.3333
mp-13250,LaSnPt,"La, Pt, Sn",3,0.0,Hexagonal,189,P-62m,0.0,False,True,0.49826365176146103,La: 0.3333; Sn: 0.3333; Pt: 0.3333
mp-1205954,LaSnIr,"Ir, La, Sn",3,0.0,Hexagonal,189,P-62m,0.0,True,True,0.4722522866246623,La: 0.3333; Sn: 0.3333; Ir: 0.3333
mp-6908,YMgZn,"Mg, Y, Zn",3,0.0,Hexagonal,189,P-62m,0.0,False,True,0.18517259216441528,Y: 0.3333; Mg: 0.3333; Zn: 0.3333
mp-1224393,Hf6Al2Fe,"Al, Fe, Hf",3,0.0,Hexagonal,189,P-62m,0.0,True,True,0.1903667675116629,Hf: 0.6667; Al: 0.2222; Fe: 0.1111
mp-1080051,Zr6Ga2Ni,"Ga, Ni, Zr",3,0.0066635338888882956,Hexagonal,189,P-62m,0.0,False,True,0.2435133783431595,Zr: 0.6667; Ga: 0.2222; Ni: 0.1111
mp-1209343,Sr2In4Au3,"Au, In, Sr",3,0.0,Hexagonal,189,P-62m,0.0,True,True,0.5838463352714278,Sr: 0.2222; In: 0.4444; Au: 0.3333
mp-1080605,MgGaAu,"Au, Ga, Mg",3,0.0,Hexagonal,189,P-62m,0.0,False,True,0.5050632523643834,Mg: 0.3333; Ga: 0.3333; Au: 0.3333
mp-1205957,Hf6NiBi2,"Bi, Hf, Ni",3,0.0,Hexagonal,189,P-62m,0.0,True,True,0.32351464942883457,Hf: 0.6667; Ni: 0.1111; Bi: 0.2222
mp-11547,YTlPd,"Pd, Tl, Y",3,0.0,Hexagonal,189,P-62m,0.0,False,True,0.40232656718972304,Y: 0.3333; Tl: 0.3333; Pd: 0.3333
mp-571609,HfGaPt,"Ga, Hf, Pt",3,0.0,Hexagonal,190,P-62c,0.0,False,True,0.40019439720660194,Hf: 0.3333; Ga: 0.3333; Pt: 0.3333
mp-607139,ZrSnIr,"Ir, Sn, Zr",3,0.0,Hexagonal,190,P-62c,0.0,False,True,0.3668787265568828,Zr: 0.3333; Sn: 0.3333; Ir: 0.3333
mp-601253,ZrGaPt,"Ga, Pt, Zr",3,0.0,Hexagonal,190,P-62c,0.0,False,True,0.3878430381252474,Zr: 0.3333; Ga: 0.3333; Pt: 0.3333
mp-2960,HfSnRh,"Hf, Rh, Sn",3,0.0,Hexagonal,190,P-62c,0.0,False,True,0.40803049994931606,Hf: 0.3333; Sn: 0.3333; Rh: 0.3333
mp-20381,HfGaPd,"Ga, Hf, Pd",3,0.0,Hexagonal,190,P-62c,0.0,False,True,0.3685105154537656,Hf: 0.3333; Ga: 0.3333; Pd: 0.3333
mp-18198,ScSnPt,"Pt, Sc, Sn",3,0.0,Hexagonal,190,P-62c,0.0,False,True,0.381342657228669,Sc: 0.3333; Sn: 0.3333; Pt: 0.3333
mp-4667,ZrSnRh,"Rh, Sn, Zr",3,0.0,Hexagonal,190,P-62c,0.0,False,True,0.39465878370505764,Zr: 0.3333; Sn: 0.3333; Rh: 0.3333
mp-571619,HfAlPt,"Al, Hf, Pt",3,0.0,Hexagonal,190,P-62c,0.0,False,True,0.40898247721224756,Hf: 0.3333; Al: 0.3333; Pt: 0.3333
mp-22315,HfCoSn,"Co, Hf, Sn",3,0.0,Hexagonal,190,P-62c,0.0,False,True,0.29408993333483696,Hf: 0.3333; Co: 0.3333; Sn: 0.3333
mp-567927,ZrAlPt,"Al, Pt, Zr",3,0.004510663333332943,Hexagonal,190,P-62c,0.0,False,True,0.39858081572833703,Zr: 0.3333; Al: 0.3333; Pt: 0.3333
mp-17092,ScSnPd,"Pd, Sc, Sn",3,0.0,Hexagonal,190,P-62c,0.0,False,True,0.35327043465311386,Sc: 0.3333; Sn: 0.3333; Pd: 0.3333
mp-542953,CaZn3Ni2,"Ca, Ni, Zn",3,0.0,Hexagonal,191,P6/mmm,0.0,False,True,0.30410615836506094,Ca: 0.1667; Zn: 0.5000; Ni: 0.3333
mp-1103130,SrAl9Ni2,"Al, Ni, Sr",3,0.010969395555559203,Hexagonal,191,P6/mmm,0.0,False,True,0.22643983748448504,Sr: 0.0833; Al: 0.7500; Ni: 0.1667
mp-1103938,Sc(FeSn)6,"Fe, Sc, Sn",3,0.010976062884613391,Hexagonal,191,P6/mmm,0.0,False,True,0.257725090401036,Sc: 0.3333; Fe: 0.3333; Sn: 0.3333
mp-1191138,LaGaBi2,"Bi, Ga, La",3,0.0,Hexagonal,191,P6/mmm,0.0,False,True,0.37791368062032366,La: 0.2500; Ga: 0.2500; Bi: 0.5000
mp-571263,KIn9Co2,"Co, In, K",3,0.0,Hexagonal,191,P6/mmm,0.0,False,True,0.2728654532101042,K: 0.0833; In: 0.7500; Co: 0.1667
mp-16766,LaAl2Ag3,"Ag, Al, La",3,0.06821519000000009,Hexagonal,191,P6/mmm,0.0,False,True,0.29820295102496885,La: 0.1667; Al: 0.3333; Ag: 0.5000
mp-680706,Y13Sn31Pd40,"Pd, Sn, Y",3,0.0,Hexagonal,191,P6/mmm,0.0,False,True,0.3349270574122791,Y: 0.1548; Sn: 0.3690; Pd: 0.4762
mp-753669,Hf(MnSn)6,"Hf, Mn, Sn",3,0.0,Hexagonal,191,P6/mmm,0.0,False,True,0.2720702523654914,Hf: 0.3333; Mn: 0.3333; Sn: 0.3333
mp-30557,YGa2Co3,"Co, Ga, Y",3,0.0,Hexagonal,191,P6/mmm,0.0,False,True,0.23760377849595649,Y: 0.1667; Ga: 0.3333; Co: 0.5000
mp-1025065,LaMn2Ni3,"La, Mn, Ni",3,0.05572169985632858,Hexagonal,191,P6/mmm,0.0,True,True,0.29584624384974023,La: 0.1667; Mn: 0.3333; Ni: 0.5000
mp-12549,BaAl9Ni2,"Al, Ba, Ni",3,0.004556505555559198,Hexagonal,191,P6/mmm,0.0,False,True,0.24103941586387898,Ba: 0.0833; Al: 0.7500; Ni: 0.1667
mp-1104337,Y(VSn)6,"Sn, V, Y",3,0.0,Hexagonal,191,P6/mmm,0.0,False,True,0.3026916289265731,Y: 0.3333; V: 0.3333; Sn: 0.3333
mp-1222937,LaCo2Ni3,"Co, La, Ni",3,0.09433801416667364,Hexagonal,191,P6/mmm,0.0,True,True,0.29769951293208385,La: 0.1667; Co: 0.3333; Ni: 0.5000
mp-1071252,LaGa2Rh3,"Ga, La, Rh",3,0.0,Hexagonal,191,P6/mmm,0.0,False,True,0.4252711553298148,La: 0.1667; Ga: 0.3333; Rh: 0.5000
mp-21201,LaGa3Pd2,"Ga, La, Pd",3,0.0,Hexagonal,191,P6/mmm,0.0,False,True,0.3668522257742967,La: 0.1667; Ga: 0.5000; Pd: 0.3333
mp-1218349,SrAg3Pd2,"Ag, Pd, Sr",3,0.0,Hexagonal,191,P6/mmm,0.0,True,True,0.42307078472625465,Sr: 0.1667; Ag: 0.5000; Pd: 0.3333
mp-1188481,YGa3Ni2,"Ga, Ni, Y",3,0.09433823956348864,Hexagonal,191,P6/mmm,0.0,False,True,0.2390083680543424,Y: 0.1667; Ga: 0.5000; Ni: 0.3333
mp-5063,YAl3Ni2,"Al, Ni, Y",3,0.0,Hexagonal,191,P6/mmm,0.0,False,True,0.2326478024826368,Y: 0.1667; Al: 0.5000; Ni: 0.3333
mp-22260,Y(MnSn)6,"Mn, Sn, Y",3,0.0,Hexagonal,191,P6/mmm,0.0,False,True,0.3026916289265731,Y: 0.3333; Mn: 0.3333; Sn: 0.3333
mp-1215019,Ca10Al2Cu19,"Al, Ca, Cu",3,0.005725459128266053,Hexagonal,191,P6/mmm,0.0,True,True,0.41378157584383135,Ca: 0.3226; Al: 0.0645; Cu: 0.6129
mp-1227665,BaSrGa4,"Ba, Ga, Sr",3,0.0005568583333315225,Hexagonal,191,P6/mmm,0.0,True,True,0.4199073971987422,Ba: 0.1667; Sr: 0.1667; Ga: 0.6667
mp-16483,BaAl9Fe2,"Al, Ba, Fe",3,0.0,Hexagonal,191,P6/mmm,0.0,False,True,0.22521594575478493,Ba: 0.0833; Al: 0.7500; Fe: 0.1667
mp-1210657,Mg(MnSn)6,"Mg, Mn, Sn",3,0.0157577157626001,Hexagonal,191,P6/mmm,0.0,True,True,0.26836956277160456,Mg: 0.3333; Mn: 0.3333; Sn: 0.3333
mp-569886,KIn9Ni2,"In, K, Ni",3,0.023438626203703183,Hexagonal,191,P6/mmm,0.0,False,True,0.2760686307585288,K: 0.0833; In: 0.7500; Ni: 0.1667
mp-1018743,LaNi3Rh2,"La, Ni, Rh",3,0.06488435833333561,Hexagonal,191,P6/mmm,0.0,True,True,0.3935063178936548,La: 0.1667; Ni: 0.5000; Rh: 0.3333
mp-12697,Sc(MnSn)6,"Mn, Sc, Sn",3,0.0,Hexagonal,191,P6/mmm,0.0,False,True,0.25037749277618554,Sc: 0.3333; Mn: 0.3333; Sn: 0.3333
mp-1222749,LaZn2Ni3,"La, Ni, Zn",3,0.0,Hexagonal,191,P6/mmm,0.0,True,True,0.28765816905177954,La: 0.1667; Zn: 0.3333; Ni: 0.5000
mp-30815,LaAl3Pd2,"Al, La, Pd",3,0.0,Hexagonal,191,P6/mmm,0.0,False,True,0.3832934761887931,La: 0.1667; Al: 0.5000; Pd: 0.3333
mp-1222942,LaCu3Ni2,"Cu, La, Ni",3,0.0,Hexagonal,191,P6/mmm,0.0,True,True,0.2996664812754339,La: 0.1667; Cu: 0.5000; Ni: 0.3333
mp-768613,Zr(MnSn)6,"Mn, Sn, Zr",3,0.0,Hexagonal,191,P6/mmm,0.0,False,True,0.2610661899893503,Zr: 0.3333; Mn: 0.3333; Sn: 0.3333
mp-1222903,LaAl2Pt3,"Al, La, Pt",3,0.0,Hexagonal,191,P6/mmm,0.0,True,True,0.4531004303683675,La: 0.1667; Al: 0.3333; Pt: 0.5000
mp-1223084,LaGa2Pt3,"Ga, La, Pt",3,0.0,Hexagonal,191,P6/mmm,0.0,True,True,0.4252711553298148,La: 0.1667; Ga: 0.3333; Pt: 0.5000
mp-1215948,YCo3Ni2,"Co, Ni, Y",3,0.04128338390624542,Hexagonal,191,P6/mmm,0.0,True,True,0.250798724079689,Y: 0.1667; Co: 0.5000; Ni: 0.3333
mp-1105630,LaGa2Co3,"Co, Ga, La",3,0.023653108333333783,Hexagonal,191,P6/mmm,0.0,False,True,0.2819968478941249,La: 0.1667; Ga: 0.3333; Co: 0.5000
mp-1207446,Zr(FeSn)6,"Fe, Sn, Zr",3,0.03008082730768802,Hexagonal,191,P6/mmm,0.0,True,True,0.271579740694249,Zr: 0.3333; Fe: 0.3333; Sn: 0.3333
mp-16491,SrAl9Co2,"Al, Co, Sr",3,0.0,Hexagonal,191,P6/mmm,0.0,False,True,0.2198863342729602,Sr: 0.0833; Al: 0.7500; Co: 0.1667
mp-11350,CaAl9Co2,"Al, Ca, Co",3,0.0,Hexagonal,191,P6/mmm,0.0,False,True,0.20766392454048332,Ca: 0.0833; Al: 0.7500; Co: 0.1667
mp-1018742,LaNi2Rh3,"La, Ni, Rh",3,0.0,Hexagonal,191,P6/mmm,0.0,True,True,0.41868842830916636,La: 0.1667; Ni: 0.3333; Rh: 0.5000
mp-1095357,BaIn9Ir2,"Ba, In, Ir",3,0.0,Hexagonal,191,P6/mmm,0.0,False,True,0.3088542896289806,Ba: 0.0833; In: 0.7500; Ir: 0.1667
mp-30659,YGa2Ni3,"Ga, Ni, Y",3,0.0,Hexagonal,191,P6/mmm,0.0,False,True,0.2463342354516634,Y: 0.1667; Ga: 0.3333; Ni: 0.5000
mp-1222765,LaZn3Ni2,"La, Ni, Zn",3,0.0,Hexagonal,191,P6/mmm,0.0,True,True,0.27004629232781546,La: 0.1667; Zn: 0.5000; Ni: 0.3333
mp-1211224,LaCo3Ni2,"Co, La, Ni",3,0.07202322111111137,Hexagonal,191,P6/mmm,0.0,True,True,0.2954657340538831,La: 0.1667; Co: 0.5000; Ni: 0.3333
mp-1222916,LaCu2Ni3,"Cu, La, Ni",3,0.0,Hexagonal,191,P6/mmm,0.0,True,True,0.3004117544674679,La: 0.1667; Cu: 0.3333; Ni: 0.5000
mp-1220784,NaInSn2,"In, Na, Sn",3,0.0,Orthorhombic,19,P2_12_12_1,0.6527000000000003,True,False,0.42640209896293896,Na: 0.2500; In: 0.2500; Sn: 0.5000
mp-1105577,La5RuPb3,"La, Pb, Ru",3,0.0,Hexagonal,193,P6_3/mcm,0.0,False,True,0.5962247484106006,La: 0.5556; Ru: 0.1111; Pb: 0.3333
mp-1106301,Zr5CuSn3,"Cu, Sn, Zr",3,0.0,Hexagonal,193,P6_3/mcm,0.0,False,True,0.3060864075533065,Zr: 0.5556; Cu: 0.1111; Sn: 0.3333
mp-1205473,Zr5AgPb3,"Ag, Pb, Zr",3,0.0,Hexagonal,193,P6_3/mcm,0.0,False,True,0.4618802153517006,Zr: 0.5556; Ag: 0.1111; Pb: 0.3333
mp-1208243,Ti5NiSn3,"Ni, Sn, Ti",3,0.01614615777777839,Hexagonal,193,P6_3/mcm,0.0,True,True,0.2030021589619427,Ti: 0.5556; Ni: 0.1111; Sn: 0.3333
mp-1189981,Zr5ZnSn3,"Sn, Zn, Zr",3,0.0,Hexagonal,193,P6_3/mcm,0.0,False,True,0.2887563798664546,Zr: 0.5556; Zn: 0.1111; Sn: 0.3333
mp-1207860,Y6Nb4Al43,"Al, Nb, Y",3,0.0020378422641513794,Hexagonal,193,P6_3/mcm,0.02259999999999973,True,False,0.12332841019170306,Y: 0.1132; Nb: 0.0755; Al: 0.8113
mp-607409,Hf5CuPb3,"Cu, Hf, Pb",3,0.0,Hexagonal,193,P6_3/mcm,0.0,False,True,0.474903498969352,Hf: 0.5556; Cu: 0.1111; Pb: 0.3333
mp-510321,Zr5AlSn3,"Al, Sn, Zr",3,0.0,Hexagonal,193,P6_3/mcm,0.0,False,True,0.287882863696116,Zr: 0.5556; Al: 0.1111; Sn: 0.3333
mp-567915,La3MnBi5,"Bi, La, Mn",3,0.07853153411877223,Hexagonal,193,P6_3/mcm,0.0,False,True,0.42175412648826155,La: 0.3333; Mn: 0.1111; Bi: 0.5556
mp-1203616,Y6Al43Cr4,"Al, Cr, Y",3,0.0,Hexagonal,193,P6_3/mcm,0.0,False,True,0.12560738868050575,Y: 0.1132; Al: 0.8113; Cr: 0.0755
mp-1188159,Zr5CuBi3,"Bi, Cu, Zr",3,0.0,Hexagonal,193,P6_3/mcm,0.0,False,True,0.3297810721608436,Zr: 0.5556; Cu: 0.1111; Bi: 0.3333
mp-1189978,Hf5GaSn3,"Ga, Hf, Sn",3,0.0,Hexagonal,193,P6_3/mcm,0.0,False,True,0.3123388473365994,Hf: 0.5556; Ga: 0.1111; Sn: 0.3333
mp-1188901,La5ZnPb3,"La, Pb, Zn",3,0.009314453888881857,Hexagonal,193,P6_3/mcm,0.0,False,True,0.5621080252929729,La: 0.5556; Zn: 0.1111; Pb: 0.3333
mp-1188583,La5FePb3,"Fe, La, Pb",3,0.08644216555555584,Hexagonal,193,P6_3/mcm,0.0,False,True,0.5677332011203159,La: 0.5556; Fe: 0.1111; Pb: 0.3333
mp-1208283,Ti5CoSn3,"Co, Sn, Ti",3,0.0,Hexagonal,193,P6_3/mcm,0.0,True,True,0.20009874105760758,Ti: 0.5556; Co: 0.1111; Sn: 0.3333
mp-696132,Zr5ZnPb3,"Pb, Zn, Zr",3,0.0,Hexagonal,193,P6_3/mcm,0.0,True,True,0.4567626284684772,Zr: 0.5556; Zn: 0.1111; Pb: 0.3333
mp-1208279,Ti5AgSn3,"Ag, Sn, Ti",3,0.012991985925928873,Hexagonal,193,P6_3/mcm,0.0,True,True,0.20515576737905486,Ti: 0.5556; Ag: 0.1111; Sn: 0.3333
mp-1207858,Y6Ti4Al43,"Al, Ti, Y",3,0.0,Hexagonal,193,P6_3/mcm,0.0,True,True,0.12306487159278853,Y: 0.1132; Ti: 0.0755; Al: 0.8113
mp-1188487,Zr5SnPb3,"Pb, Sn, Zr",3,0.0,Hexagonal,193,P6_3/mcm,0.0,False,True,0.4634172585862071,Zr: 0.5556; Sn: 0.1111; Pb: 0.3333
mp-1189076,La5CuBi3,"Bi, Cu, La",3,0.015253501666665947,Hexagonal,193,P6_3/mcm,0.0,False,True,0.44359919624992583,La: 0.5556; Cu: 0.1111; Bi: 0.3333
mp-1208400,Ti5MnSn3,"Mn, Sn, Ti",3,0.008262041011909638,Hexagonal,193,P6_3/mcm,0.0,True,True,0.1972276994544599,Ti: 0.5556; Mn: 0.1111; Sn: 0.3333
mp-646750,Y5CuPb3,"Cu, Pb, Y",3,0.028171417051282788,Hexagonal,193,P6_3/mcm,0.0,False,True,0.513379026345407,Y: 0.5556; Cu: 0.1111; Pb: 0.3333
mp-1189916,Zr5CdPb3,"Cd, Pb, Zr",3,0.0,Hexagonal,193,P6_3/mcm,0.0,False,True,0.45645980716329837,Zr: 0.5556; Cd: 0.1111; Pb: 0.3333
mp-1189448,Zr5GaPb3,"Ga, Pb, Zr",3,0.0,Hexagonal,193,P6_3/mcm,0.0,False,True,0.45762672804614707,Zr: 0.5556; Ga: 0.1111; Pb: 0.3333
mp-569411,La3ScBi5,"Bi, La, Sc",3,0.0,Hexagonal,193,P6_3/mcm,0.0,False,True,0.43143172499635823,La: 0.3333; Sc: 0.1111; Bi: 0.5556
mp-1106219,Zr5AlPb3,"Al, Pb, Zr",3,0.0,Hexagonal,193,P6_3/mcm,0.0,False,True,0.45741085618732824,Zr: 0.5556; Al: 0.1111; Pb: 0.3333
mp-1212523,Hf5NiSn3,"Hf, Ni, Sn",3,0.019575682333332622,Hexagonal,193,P6_3/mcm,0.0,False,True,0.3220689290535931,Hf: 0.5556; Ni: 0.1111; Sn: 0.3333
mp-1188531,Zr5CuPb3,"Cu, Pb, Zr",3,0.0,Hexagonal,193,P6_3/mcm,0.0,False,True,0.46053109437788114,Zr: 0.5556; Cu: 0.1111; Pb: 0.3333
mp-1188521,La5CoPb3,"Co, La, Pb",3,0.017650232019741807,Hexagonal,193,P6_3/mcm,0.0,False,True,0.5702825810264787,La: 0.5556; Co: 0.1111; Pb: 0.3333
mp-1189765,Zr5In3Cu,"Cu, In, Zr",3,0.03612805888888815,Hexagonal,193,P6_3/mcm,0.0,False,True,0.24101636643366955,Zr: 0.5556; In: 0.3333; Cu: 0.1111
mp-31469,Hf5CuSn3,"Cu, Hf, Sn",3,0.0,Hexagonal,193,P6_3/mcm,0.0,True,True,0.32097074979228585,Hf: 0.5556; Cu: 0.1111; Sn: 0.3333
mp-30644,Hf3Nb2Ga3,"Ga, Hf, Nb",3,0.0,Hexagonal,193,P6_3/mcm,0.0,False,True,0.2216944688078618,Hf: 0.3750; Nb: 0.2500; Ga: 0.3750
mp-31207,Zr5GaSn3,"Ga, Sn, Zr",3,0.0,Hexagonal,193,P6_3/mcm,0.0,False,True,0.29758285494220854,Zr: 0.5556; Ga: 0.1111; Sn: 0.3333
mp-1208517,Ti5FeSn3,"Fe, Sn, Ti",3,0.020267562857137378,Hexagonal,193,P6_3/mcm,0.0,True,True,0.1961732668262522,Ti: 0.5556; Fe: 0.1111; Sn: 0.3333
mp-1208239,Ti5CuSn3,"Cu, Sn, Ti",3,0.0,Hexagonal,193,P6_3/mcm,0.0,True,True,0.20199009876724153,Ti: 0.5556; Cu: 0.1111; Sn: 0.3333
mp-1208220,Ti5Sn3Au,"Au, Sn, Ti",3,0.011666334333330752,Hexagonal,193,P6_3/mcm,0.0,True,True,0.32688579196357603,Ti: 0.5556; Sn: 0.3333; Au: 0.1111
mp-1214183,Ca6Al43W4,"Al, Ca, W",3,0.0,Hexagonal,193,P6_3/mcm,0.0,True,True,0.2905551333410889,Ca: 0.1132; Al: 0.8113; W: 0.0755
mp-1188578,La5CuPb3,"Cu, La, Pb",3,0.01916577944444331,Hexagonal,193,P6_3/mcm,0.0,False,True,0.571420149849759,La: 0.5556; Cu: 0.1111; Pb: 0.3333
mp-1212187,Hf3Ti2Ga3,"Ga, Hf, Ti",3,0.0,Hexagonal,193,P6_3/mcm,0.0,True,True,0.22093197482483157,Hf: 0.3750; Ti: 0.2500; Ga: 0.3750
mp-1190397,Zr5In3Ag,"Ag, In, Zr",3,0.0269953788888877,Hexagonal,193,P6_3/mcm,0.0,False,True,0.24608038433722332,Zr: 0.5556; In: 0.3333; Ag: 0.1111
mp-1212526,Hf5CoSn3,"Co, Hf, Sn",3,0.02956743533333217,Hexagonal,193,P6_3/mcm,0.0,True,True,0.3188559797188522,Hf: 0.5556; Co: 0.1111; Sn: 0.3333
mp-1210041,Nb6Al11Ir,"Al, Ir, Nb",3,0.0523411046555573,Hexagonal,193,P6_3/mcm,0.0,True,True,0.13603399175787004,Nb: 0.3333; Al: 0.6111; Ir: 0.0556
mp-1208323,Ti5CuBi3,"Bi, Cu, Ti",3,0.0,Hexagonal,193,P6_3/mcm,0.0,True,True,0.22627416997969518,Ti: 0.5556; Cu: 0.1111; Bi: 0.3333
mp-568964,La3MgBi5,"Bi, La, Mg",3,0.020195176111108992,Hexagonal,193,P6_3/mcm,0.0,False,True,0.43530605098561553,La: 0.3333; Mg: 0.1111; Bi: 0.5556
mp-1190391,Zr5InPb3,"In, Pb, Zr",3,0.0,Hexagonal,193,P6_3/mcm,0.0,False,True,0.45704364002673625,Zr: 0.5556; In: 0.1111; Pb: 0.3333
mp-680754,Ca5CuPb3,"Ca, Cu, Pb",3,0.04950436988888818,Hexagonal,193,P6_3/mcm,0.0,True,True,0.6200179208879548,Ca: 0.5556; Cu: 0.1111; Pb: 0.3333