material_id,formula,elements,num_elements,energy_above_hull,crystal_system,spacegroup_number,spacegroup_symbol,band_gap,theoretical,is_metal,electronegativity_difference,atomic_concentrations
mp-7187,TiAlNi2,"Al, Ni, Ti",3,0.0,Cubic,225,Fm-3m,0.0,False,True,0.16931848688197038,Ti: 0.2500; Al: 0.2500; Ni: 0.5000
mp-16495,AlCrFe2,"Al, Cr, Fe",3,0.01695240624999883,Cubic,225,Fm-3m,0.0,False,True,0.09908960591303209,Al: 0.2500; Cr: 0.2500; Fe: 0.5000
mp-862361,Sc2NiOs,"Ni, Os, Sc",3,0.0,Cubic,225,Fm-3m,0.0,True,True,0.36231029518908237,Sc: 0.5000; Ni: 0.2500; Os: 0.2500
mp-978523,Sc2ZnCu,"Cu, Sc, Zn",3,0.013394392500000407,Cubic,225,Fm-3m,0.0,True,True,0.22554101622543063,Sc: 0.5000; Zn: 0.2500; Cu: 0.2500
mp-11366,ZrZnCu2,"Cu, Zn, Zr",3,0.0,Cubic,225,Fm-3m,0.0,False,True,0.23414738947936184,Zr: 0.2500; Zn: 0.2500; Cu: 0.5000
mp-866223,CaYHg2,"Ca, Hg, Y",3,0.0,Cubic,225,Fm-3m,0.0,True,True,0.4517466103912679,Ca: 0.2500; Y: 0.2500; Hg: 0.5000
mp-865099,NaLaHg2,"Hg, La, Na",3,0.0,Cubic,225,Fm-3m,0.0,True,True,0.4961539579606314,Na: 0.2500; La: 0.2500; Hg: 0.5000
mp-1184573,HfTaRu2,"Hf, Ru, Ta",3,0.011538860000001705,Cubic,225,Fm-3m,0.0,True,True,0.4062019202317981,Hf: 0.2500; Ta: 0.2500; Ru: 0.5000
mp-862296,LiAlPt2,"Al, Li, Pt",3,0.0,Cubic,225,Fm-3m,0.0,True,True,0.5405263638343646,Li: 0.2500; Al: 0.2500; Pt: 0.5000
mp-866075,MgTaIr2,"Ir, Mg, Ta",3,0.0,Cubic,225,Fm-3m,0.0,True,True,0.4031361432568408,Mg: 0.2500; Ta: 0.2500; Ir: 0.5000
mp-866139,TiBe2Ir,"Be, Ir, Ti",3,0.0,Cubic,225,Fm-3m,0.0,True,True,0.277398630133604,Ti: 0.2500; Be: 0.5000; Ir: 0.2500
mp-862672,LiY2Rh,"Li, Rh, Y",3,0.009756284095238321,Cubic,225,Fm-3m,0.0,True,True,0.5032643440578718,Li: 0.2500; Y: 0.5000; Rh: 0.2500
mp-1184602,Hf2MnCo,"Co, Hf, Mn",3,0.06911564343750243,Cubic,225,Fm-3m,0.0,True,True,0.2380519901198055,Hf: 0.5000; Mn: 0.2500; Co: 0.2500
mp-1184601,HfZrRu2,"Hf, Ru, Zr",3,0.0032363525000000948,Cubic,225,Fm-3m,0.0,True,True,0.4426271003903851,Hf: 0.2500; Zr: 0.2500; Ru: 0.5000
mp-1185239,LiTl2Pd,"Li, Pd, Tl",3,0.010634181250004815,Cubic,225,Fm-3m,0.0,True,True,0.43159587579123143,Li: 0.2500; Tl: 0.5000; Pd: 0.2500
mp-1187473,TiGaTc2,"Ga, Tc, Ti",3,0.014973979999998832,Cubic,225,Fm-3m,0.0,True,True,0.14754236679679497,Ti: 0.2500; Ga: 0.2500; Tc: 0.5000
mp-1183548,CaMgCd2,"Ca, Cd, Mg",3,0.0,Cubic,225,Fm-3m,0.0,True,True,0.2890826006524778,Ca: 0.2500; Mg: 0.2500; Cd: 0.5000
mp-865102,NaLaTl2,"La, Na, Tl",3,0.001610881030894351,Cubic,225,Fm-3m,0.0,True,True,0.30841327792428136,Na: 0.2500; La: 0.2500; Tl: 0.5000
mp-1187731,Y2ZnHg,"Hg, Y, Zn",3,0.010055722499998865,Cubic,225,Fm-3m,0.0,True,True,0.3268313785425139,Y: 0.5000; Zn: 0.2500; Hg: 0.2500
mp-1187422,Ti2CoOs,"Co, Os, Ti",3,0.0,Cubic,225,Fm-3m,0.0,True,True,0.2744084546802449,Ti: 0.5000; Co: 0.2500; Os: 0.2500
mp-977359,CaSnAu2,"Au, Ca, Sn",3,0.0,Cubic,225,Fm-3m,0.0,True,True,0.6293647591023825,Ca: 0.2500; Sn: 0.2500; Au: 0.5000
mp-976326,NaInAg2,"Ag, In, Na",3,0.038723199999999736,Cubic,225,Fm-3m,0.0,True,True,0.41589511899035314,Na: 0.2500; In: 0.2500; Ag: 0.5000
mp-867114,TaBeRu2,"Be, Ru, Ta",3,0.0,Cubic,225,Fm-3m,0.0,True,True,0.33341978045700893,Ta: 0.2500; Be: 0.2500; Ru: 0.5000
mp-867828,BeNbRu2,"Be, Nb, Ru",3,0.0,Cubic,225,Fm-3m,0.0,True,True,0.3076828724514903,Be: 0.2500; Nb: 0.2500; Ru: 0.5000
mp-30819,LiAl2Pt,"Al, Li, Pt",3,0.0,Cubic,225,Fm-3m,0.0,False,True,0.4597281805589037,Li: 0.2500; Al: 0.5000; Pt: 0.2500
mp-863707,KNa2Bi,"Bi, K, Na",3,0.0,Cubic,225,Fm-3m,0.0,True,True,0.4899234634103576,K: 0.2500; Na: 0.5000; Bi: 0.2500
mp-1185316,LiGa2Co,"Co, Ga, Li",3,0.03561814374999983,Cubic,225,Fm-3m,0.0,True,True,0.37060760920412844,Li: 0.2500; Ga: 0.5000; Co: 0.2500
mp-867124,La2ZnIr,"Ir, La, Zn",3,0.0790927624999993,Cubic,225,Fm-3m,0.0,True,True,0.4560359086738675,La: 0.5000; Zn: 0.2500; Ir: 0.2500
mp-867781,TaGaRu2,"Ga, Ru, Ta",3,0.0,Cubic,225,Fm-3m,0.0,True,True,0.2937154234969625,Ta: 0.2500; Ga: 0.2500; Ru: 0.5000
mp-861640,Ti2AlRe,"Al, Re, Ti",3,0.0,Cubic,225,Fm-3m,0.0,True,True,0.14855554516745575,Ti: 0.5000; Al: 0.2500; Re: 0.2500
mp-1183305,BaSrHg2,"Ba, Hg, Sr",3,0.016307632499998448,Cubic,225,Fm-3m,0.0,True,True,0.5404165060395547,Ba: 0.2500; Sr: 0.2500; Hg: 0.5000
mp-978256,Mg2TlPb,"Mg, Pb, Tl",3,0.0,Cubic,225,Fm-3m,0.0,True,True,0.4166158302321216,Mg: 0.5000; Tl: 0.2500; Pb: 0.2500
mp-973957,La2ZnAg,"Ag, La, Zn",3,0.0057366025000007426,Cubic,225,Fm-3m,0.0,True,True,0.3589219970968622,La: 0.5000; Zn: 0.2500; Ag: 0.2500
mp-864883,MgSnPd2,"Mg, Pd, Sn",3,0.0,Cubic,225,Fm-3m,0.0,True,True,0.36416857360294014,Mg: 0.2500; Sn: 0.2500; Pd: 0.5000
mp-867350,Ca2MgIn,"Ca, In, Mg",3,0.0,Cubic,225,Fm-3m,0.0,True,True,0.3191688424642982,Ca: 0.5000; Mg: 0.2500; In: 0.2500
mp-861901,LiGaCu2,"Cu, Ga, Li",3,0.0,Cubic,225,Fm-3m,0.0,True,True,0.3871288545174591,Li: 0.2500; Ga: 0.2500; Cu: 0.5000
mp-1183460,Ca2InPb,"Ca, In, Pb",3,0.014453691875000452,Cubic,225,Fm-3m,0.0,True,True,0.5621999199573049,Ca: 0.5000; In: 0.2500; Pb: 0.2500
mp-1183037,ZrZnAu2,"Au, Zn, Zr",3,0.0,Cubic,225,Fm-3m,0.0,True,True,0.5370521389958334,Zr: 0.2500; Zn: 0.2500; Au: 0.5000
mp-1187511,TiRe2Mo,"Mo, Re, Ti",3,0.0,Cubic,225,Fm-3m,0.0,True,True,0.22062411472910212,Ti: 0.2500; Re: 0.5000; Mo: 0.2500
mp-1186943,Sc2GaPd,"Ga, Pd, Sc",3,0.019793296249998704,Cubic,225,Fm-3m,0.0,True,True,0.3507402885326977,Sc: 0.5000; Ga: 0.2500; Pd: 0.2500
mp-1184615,Hf2CuRh,"Cu, Hf, Rh",3,0.03392611365385001,Cubic,225,Fm-3m,0.0,True,True,0.4172229619759678,Hf: 0.5000; Cu: 0.2500; Rh: 0.2500
mp-865093,TiZnNi2,"Ni, Ti, Zn",3,0.0,Cubic,225,Fm-3m,0.0,True,True,0.16223054582907617,Ti: 0.2500; Zn: 0.2500; Ni: 0.5000
mp-982974,LiBeAu2,"Au, Be, Li",3,0.0057941406249995,Cubic,225,Fm-3m,0.0,True,True,0.6660095720032858,Li: 0.2500; Be: 0.2500; Au: 0.5000
mp-1194261,Sc6Al16Pd7,"Al, Pd, Sc",3,0.0,Cubic,225,Fm-3m,0.0,False,True,0.29787675112116724,Sc: 0.2069; Al: 0.5517; Pd: 0.2414
mp-862262,LaCdHg2,"Cd, Hg, La",3,0.0,Cubic,225,Fm-3m,0.0,True,True,0.3674489760497367,La: 0.2500; Cd: 0.2500; Hg: 0.5000
mp-864782,Ta2MoRu,"Mo, Ru, Ta",3,0.0,Cubic,225,Fm-3m,0.0,True,True,0.3402939905434712,Ta: 0.5000; Mo: 0.2500; Ru: 0.2500
mp-864943,MnBe2Ir,"Be, Ir, Mn",3,0.0,Cubic,225,Fm-3m,0.0,True,True,0.2758056380859536,Mn: 0.2500; Be: 0.5000; Ir: 0.2500
mp-1184647,HfZrCo2,"Co, Hf, Zr",3,0.0,Cubic,225,Fm-3m,0.0,True,True,0.2826990449223342,Hf: 0.2500; Zr: 0.2500; Co: 0.5000
mp-11519,NiSnRh2,"Ni, Rh, Sn",3,0.020375088749998937,Cubic,225,Fm-3m,0.0,False,True,0.1734034313385983,Ni: 0.2500; Sn: 0.2500; Rh: 0.5000
mp-867822,LiYAu2,"Au, Li, Y",3,0.00812958749999737,Cubic,225,Fm-3m,0.0,True,True,0.7249827584156744,Li: 0.2500; Y: 0.2500; Au: 0.5000
mp-1185770,Mg2NiRh,"Mg, Ni, Rh",3,0.010170365156250583,Cubic,225,Fm-3m,0.0,True,True,0.413725452444009,Mg: 0.5000; Ni: 0.2500; Rh: 0.2500
mp-1183173,AlGaNi2,"Al, Ga, Ni",3,0.019714050952382323,Cubic,225,Fm-3m,0.0,True,True,0.12247448713915883,Al: 0.2500; Ga: 0.2500; Ni: 0.5000
mp-1185379,LiIn2Ag,"Ag, In, Li",3,0.01646954250000121,Cubic,225,Fm-3m,0.0,True,True,0.3731202889149825,Li: 0.2500; In: 0.5000; Ag: 0.2500
mp-1183301,Ba2ZnHg,"Ba, Hg, Zn",3,0.0036882933333337586,Cubic,225,Fm-3m,0.0,True,True,0.48359978287836314,Ba: 0.5000; Zn: 0.2500; Hg: 0.2500
mp-864770,Ta2MoOs,"Mo, Os, Ta",3,0.0,Cubic,225,Fm-3m,0.0,True,True,0.3402939905434712,Ta: 0.5000; Mo: 0.2500; Os: 0.2500
mp-1187432,Ti2CoMo,"Co, Mo, Ti",3,0.05420286055555579,Cubic,225,Fm-3m,0.0,True,True,0.2596150997149434,Ti: 0.5000; Co: 0.2500; Mo: 0.2500
mp-862300,Sc2GaOs,"Ga, Os, Sc",3,0.0,Cubic,225,Fm-3m,0.0,True,True,0.3507402885326977,Sc: 0.5000; Ga: 0.2500; Os: 0.2500
mp-862379,Sc2TcAg,"Ag, Sc, Tc",3,0.014370795312501627,Cubic,225,Fm-3m,0.0,True,True,0.2777026287236042,Sc: 0.5000; Tc: 0.2500; Ag: 0.2500
mp-973056,Na2CdHg,"Cd, Hg, Na",3,0.011814057857141513,Cubic,225,Fm-3m,0.0,True,True,0.4704452678048744,Na: 0.5000; Cd: 0.2500; Hg: 0.2500
mp-866169,KTl2Bi,"Bi, K, Tl",3,0.0,Cubic,225,Fm-3m,0.0,True,True,0.4358898943540674,K: 0.2500; Tl: 0.5000; Bi: 0.2500
mp-1193884,Zr6Ga16Ru7,"Ga, Ru, Zr",3,0.04397135212643377,Cubic,225,Fm-3m,0.0,False,True,0.29044105211943194,Zr: 0.2069; Ga: 0.5517; Ru: 0.2414
mp-642031,Sr11Al4In3,"Al, In, Sr",3,0.0028261527469140013,Cubic,225,Fm-3m,0.0,False,True,0.36109786300484625,Sr: 0.6111; Al: 0.2222; In: 0.1667
mp-1183617,CaInAg2,"Ag, Ca, In",3,0.03302308781250218,Cubic,225,Fm-3m,0.0,True,True,0.38594040990805817,Ca: 0.2500; In: 0.2500; Ag: 0.5000
mp-1183204,Ba2CdHg,"Ba, Cd, Hg",3,0.007915799999999251,Cubic,225,Fm-3m,0.0,True,True,0.4899170848215032,Ba: 0.5000; Cd: 0.2500; Hg: 0.2500
mp-978265,Mg2ZnPd,"Mg, Pd, Zn",3,0.009695222395834868,Cubic,225,Fm-3m,0.0,True,True,0.36382516405548426,Mg: 0.5000; Zn: 0.2500; Pd: 0.2500
mp-864968,MnInRh2,"In, Mn, Rh",3,0.0,Cubic,225,Fm-3m,0.0,True,True,0.31807035385272847,Mn: 0.2500; In: 0.2500; Rh: 0.5000
mp-865020,HfMgIr2,"Hf, Ir, Mg",3,0.0,Cubic,225,Fm-3m,0.0,True,True,0.4475139662625068,Hf: 0.2500; Mg: 0.2500; Ir: 0.5000
mp-866213,TiTc2Mo,"Mo, Tc, Ti",3,0.0,Cubic,225,Fm-3m,0.0,True,True,0.22062411472910212,Ti: 0.2500; Tc: 0.5000; Mo: 0.2500
mp-865121,NaSrAu2,"Au, Na, Sr",3,0.026257758000003406,Cubic,225,Fm-3m,0.0,True,True,0.8000312493896723,Na: 0.2500; Sr: 0.2500; Au: 0.5000
mp-867125,Al2RuPt,"Al, Pt, Ru",3,0.0,Cubic,225,Fm-3m,0.0,True,True,0.3162672920173693,Al: 0.5000; Ru: 0.2500; Pt: 0.2500
mp-862297,LiAlRh2,"Al, Li, Rh",3,0.0,Cubic,225,Fm-3m,0.0,True,True,0.5405263638343646,Li: 0.2500; Al: 0.2500; Rh: 0.5000
mp-1184604,Hf2OsRu,"Hf, Os, Ru",3,0.0,Cubic,225,Fm-3m,0.0,True,True,0.45000000000000007,Hf: 0.5000; Os: 0.2500; Ru: 0.2500
mp-976236,NaCaTl2,"Ca, Na, Tl",3,0.015183137500002886,Cubic,225,Fm-3m,0.0,True,True,0.32843378328058764,Na: 0.2500; Ca: 0.2500; Tl: 0.5000
mp-864923,MgZnPd2,"Mg, Pd, Zn",3,0.0,Cubic,225,Fm-3m,0.0,True,True,0.379539194286967,Mg: 0.2500; Zn: 0.2500; Pd: 0.5000
mp-973874,LiLa2Al,"Al, La, Li",3,0.02777335364583422,Cubic,225,Fm-3m,0.0,True,True,0.24314347616170995,Li: 0.2500; La: 0.5000; Al: 0.2500
mp-865805,TaZnCo2,"Co, Ta, Zn",3,0.0,Cubic,225,Fm-3m,0.0,True,True,0.1614581989246752,Ta: 0.2500; Zn: 0.2500; Co: 0.5000
mp-1186961,Sc2TlHg,"Hg, Sc, Tl",3,0.0,Cubic,225,Fm-3m,0.0,True,True,0.26205915362757315,Sc: 0.5000; Tl: 0.2500; Hg: 0.2500
mp-21175,TaGaNi2,"Ga, Ni, Ta",3,0.0024405581048370095,Cubic,225,Fm-3m,0.0,False,True,0.1681331317736037,Ta: 0.2500; Ga: 0.2500; Ni: 0.5000
mp-977561,LiTaIr2,"Ir, Li, Ta",3,0.0,Cubic,225,Fm-3m,0.0,True,True,0.514003891035856,Li: 0.2500; Ta: 0.2500; Ir: 0.5000
mp-1187216,SrHg2Pb,"Hg, Pb, Sr",3,0.0,Cubic,225,Fm-3m,0.0,True,True,0.5200480747007915,Sr: 0.2500; Hg: 0.5000; Pb: 0.2500
mp-977549,Zr2OsRu,"Os, Ru, Zr",3,0.0,Cubic,225,Fm-3m,0.0,True,True,0.43500000000000005,Zr: 0.5000; Os: 0.2500; Ru: 0.2500
mp-865586,VGaRu2,"Ga, Ru, V",3,0.0,Cubic,225,Fm-3m,0.0,True,True,0.24829418035870285,V: 0.2500; Ga: 0.2500; Ru: 0.5000
mp-1187195,Ta2VIr,"Ir, Ta, V",3,0.0,Cubic,225,Fm-3m,0.0,True,True,0.2892555098870202,Ta: 0.5000; V: 0.2500; Ir: 0.2500
mp-864598,LiMg2Ag,"Ag, Li, Mg",3,0.0,Cubic,225,Fm-3m,0.0,True,True,0.3436113356686592,Li: 0.2500; Mg: 0.5000; Ag: 0.2500
mp-1187492,TiTc2Sn,"Sn, Tc, Ti",3,0.0,Cubic,225,Fm-3m,0.0,True,True,0.1663580475961412,Ti: 0.2500; Tc: 0.5000; Sn: 0.2500
mp-1185233,Li2YIn,"In, Li, Y",3,0.0,Cubic,225,Fm-3m,0.04789999999999983,True,False,0.32680269276736384,Li: 0.5000; Y: 0.2500; In: 0.2500
mp-975997,NaLi2Pb,"Li, Na, Pb",3,0.02011342971666874,Cubic,225,Fm-3m,0.0,True,True,0.5921359641163506,Na: 0.2500; Li: 0.5000; Pb: 0.2500
mp-866288,BeVCo2,"Be, Co, V",3,0.0,Cubic,225,Fm-3m,0.0,True,True,0.1415980225850629,Be: 0.2500; V: 0.2500; Co: 0.5000
mp-977430,MgNbRu2,"Mg, Nb, Ru",3,0.0,Cubic,225,Fm-3m,0.0,True,True,0.386353141568695,Mg: 0.2500; Nb: 0.2500; Ru: 0.5000
mp-864734,HfInPd2,"Hf, In, Pd",3,0.0,Cubic,225,Fm-3m,0.0,True,True,0.3710795063055895,Hf: 0.2500; In: 0.2500; Pd: 0.5000
mp-1186950,Sc2InHg,"Hg, In, Sc",3,0.024600214999999537,Cubic,225,Fm-3m,0.0,True,True,0.2761792895928295,Sc: 0.5000; In: 0.2500; Hg: 0.2500
mp-10872,HfAlAu2,"Al, Au, Hf",3,0.018337413333334496,Cubic,225,Fm-3m,0.0,False,True,0.5534607032120709,Hf: 0.2500; Al: 0.2500; Au: 0.5000
mp-1186224,NbGaTc2,"Ga, Nb, Tc",3,0.0,Cubic,225,Fm-3m,0.0,True,True,0.12255100978776137,Nb: 0.2500; Ga: 0.2500; Tc: 0.5000
mp-972899,Sc2GaIr,"Ga, Ir, Sc",3,0.025148502500000447,Cubic,225,Fm-3m,0.0,True,True,0.3507402885326977,Sc: 0.5000; Ga: 0.2500; Ir: 0.2500
mp-864764,Ta2FeOs,"Fe, Os, Ta",3,0.004915379375001194,Cubic,225,Fm-3m,0.0,True,True,0.2888230427095457,Ta: 0.5000; Fe: 0.2500; Os: 0.2500
mp-862791,GaCuPt2,"Cu, Ga, Pt",3,0.04884635749999955,Cubic,225,Fm-3m,0.0,True,True,0.21486914622625547,Ga: 0.2500; Cu: 0.2500; Pt: 0.5000
mp-866168,TiInPd2,"In, Pd, Ti",3,0.0,Cubic,225,Fm-3m,0.0,True,True,0.28301943396169815,Ti: 0.2500; In: 0.2500; Pd: 0.5000
mp-867263,ScCdHg2,"Cd, Hg, Sc",3,0.0,Cubic,225,Fm-3m,0.0,True,True,0.26461056290329754,Sc: 0.2500; Cd: 0.2500; Hg: 0.5000
mp-1183448,Ca2CdGa,"Ca, Cd, Ga",3,0.015126652500000226,Cubic,225,Fm-3m,0.0,True,True,0.3773923687622737,Ca: 0.5000; Cd: 0.2500; Ga: 0.2500
mp-1185750,Mg2AgHg,"Ag, Hg, Mg",3,0.0,Cubic,225,Fm-3m,0.0,True,True,0.3284337832805876,Mg: 0.5000; Ag: 0.2500; Hg: 0.2500
mp-861617,LaHgAu2,"Au, Hg, La",3,0.0,Cubic,225,Fm-3m,0.0,True,True,0.5884513573779909,La: 0.2500; Hg: 0.2500; Au: 0.5000
mp-1185423,LiZrPd2,"Li, Pd, Zr",3,0.026484790000001368,Cubic,225,Fm-3m,0.0,True,True,0.5369532102520667,Li: 0.2500; Zr: 0.2500; Pd: 0.5000
mp-865044,MgInIr2,"In, Ir, Mg",3,0.02593545718749901,Cubic,225,Fm-3m,0.0,True,True,0.36724480935746395,Mg: 0.2500; In: 0.2500; Ir: 0.5000
mp-865650,Ti2TcRu,"Ru, Tc, Ti",3,0.0,Cubic,225,Fm-3m,0.0,True,True,0.27617928959282956,Ti: 0.5000; Tc: 0.2500; Ru: 0.2500
mp-867137,ScVRu2,"Ru, Sc, V",3,0.0,Cubic,225,Fm-3m,0.0,True,True,0.36519686471819557,Sc: 0.2500; V: 0.2500; Ru: 0.5000
mp-864761,Ta2MnOs,"Mn, Os, Ta",3,0.0017663354166685963,Cubic,225,Fm-3m,0.0,True,True,0.2965952629426169,Ta: 0.5000; Mn: 0.2500; Os: 0.2500
mp-1187499,TiMnIr2,"Ir, Mn, Ti",3,0.0030608155172409113,Cubic,225,Fm-3m,0.0,True,True,0.3275190834134708,Ti: 0.2500; Mn: 0.2500; Ir: 0.5000
mp-1186021,Na2HgAu,"Au, Hg, Na",3,0.016146524166668286,Cubic,225,Fm-3m,0.0,True,True,0.696670653896086,Na: 0.5000; Hg: 0.2500; Au: 0.2500
mp-867119,LiHfPd2,"Hf, Li, Pd",3,0.006681774583334743,Cubic,225,Fm-3m,0.0,True,True,0.5419409561935692,Li: 0.2500; Hf: 0.2500; Pd: 0.5000
mp-1183450,Ca2GaHg,"Ca, Ga, Hg",3,0.02096130624999759,Cubic,225,Fm-3m,0.0,True,True,0.45745901455758853,Ca: 0.5000; Ga: 0.2500; Hg: 0.2500
mp-862288,AlFe2W,"Al, Fe, W",3,0.0,Cubic,225,Fm-3m,0.0,True,True,0.27625848403261744,Al: 0.2500; Fe: 0.5000; W: 0.2500
mp-866279,CaCdPd2,"Ca, Cd, Pd",3,0.021220550937500082,Cubic,225,Fm-3m,0.0,True,True,0.49220803528589424,Ca: 0.2500; Cd: 0.2500; Pd: 0.5000
mp-865091,HfMnRh2,"Hf, Mn, Rh",3,0.0,Cubic,225,Fm-3m,0.0,True,True,0.436541807848916,Hf: 0.2500; Mn: 0.2500; Rh: 0.5000
mp-1185824,MgAgAu2,"Ag, Au, Mg",3,0.012053674333331266,Cubic,225,Fm-3m,0.0,True,True,0.5095586325438909,Mg: 0.2500; Ag: 0.2500; Au: 0.5000
mp-865178,Hf2IrRh,"Hf, Ir, Rh",3,0.0,Cubic,225,Fm-3m,0.0,True,True,0.4708502946797421,Hf: 0.5000; Ir: 0.2500; Rh: 0.2500
mp-867829,LiVRh2,"Li, Rh, V",3,0.0,Cubic,225,Fm-3m,0.0,True,True,0.5389515284327524,Li: 0.2500; V: 0.2500; Rh: 0.5000
mp-31185,MnAlFe2,"Al, Fe, Mn",3,0.0,Cubic,225,Fm-3m,0.0,False,True,0.12678722333105966,Mn: 0.2500; Al: 0.2500; Fe: 0.5000
mp-861960,CaInAu2,"Au, Ca, In",3,0.035720307740383817,Cubic,225,Fm-3m,0.0,True,True,0.6377107494781628,Ca: 0.2500; In: 0.2500; Au: 0.5000
mp-864930,LiTiIr2,"Ir, Li, Ti",3,0.0,Cubic,225,Fm-3m,0.0,True,True,0.5100000000000001,Li: 0.2500; Ti: 0.2500; Ir: 0.5000
mp-4922,MnAlNi2,"Al, Mn, Ni",3,0.0,Cubic,225,Fm-3m,0.0,False,True,0.16635804759614117,Mn: 0.2500; Al: 0.2500; Ni: 0.5000
mp-20228,MnGaNi2,"Ga, Mn, Ni",3,0.01272752749999917,Cubic,225,Fm-3m,0.0,False,True,0.14722431864335453,Mn: 0.2500; Ga: 0.2500; Ni: 0.5000
mp-865664,TiRe2W,"Re, Ti, W",3,0.0,Cubic,225,Fm-3m,0.0,True,True,0.2909896905390292,Ti: 0.2500; Re: 0.5000; W: 0.2500
mp-981377,V2ReTc,"Re, Tc, V",3,0.0,Cubic,225,Fm-3m,0.0,True,True,0.135,V: 0.5000; Re: 0.2500; Tc: 0.2500
mp-866080,MgSc2Tl,"Mg, Sc, Tl",3,0.0,Cubic,225,Fm-3m,0.0,True,True,0.12152674602736635,Mg: 0.2500; Sc: 0.5000; Tl: 0.2500
mp-1184579,HfTiZn2,"Hf, Ti, Zn",3,0.0117869834374984,Cubic,225,Fm-3m,0.0,True,True,0.14291605927956447,Hf: 0.2500; Ti: 0.2500; Zn: 0.5000
mp-1187231,Sr2ZnIn,"In, Sr, Zn",3,0.005388072812500422,Cubic,225,Fm-3m,0.0,True,True,0.38525154120392563,Sr: 0.5000; Zn: 0.2500; In: 0.2500
mp-865810,TiTc2W,"Tc, Ti, W",3,0.0,Cubic,225,Fm-3m,0.0,True,True,0.2909896905390292,Ti: 0.2500; Tc: 0.5000; W: 0.2500
mp-1185765,Mg2IrAu,"Au, Ir, Mg",3,0.04975164414473632,Cubic,225,Fm-3m,0.0,True,True,0.5434611301647985,Mg: 0.5000; Ir: 0.2500; Au: 0.2500
mp-1186958,Sc2CuRh,"Cu, Rh, Sc",3,0.017515162499999626,Cubic,225,Fm-3m,0.0,True,True,0.38894086954188795,Sc: 0.5000; Cu: 0.2500; Rh: 0.2500
mp-973256,LaMgTl2,"La, Mg, Tl",3,0.016575830208334974,Cubic,225,Fm-3m,0.0,True,True,0.22038318901404436,La: 0.2500; Mg: 0.2500; Tl: 0.5000
mp-867121,LiY2Pt,"Li, Pt, Y",3,0.033942637291666244,Cubic,225,Fm-3m,0.0,True,True,0.5032643440578718,Li: 0.2500; Y: 0.5000; Pt: 0.2500
mp-975578,Li2SnHg,"Hg, Li, Sn",3,0.010015364999999221,Cubic,225,Fm-3m,0.0,True,True,0.500199960015992,Li: 0.5000; Sn: 0.2500; Hg: 0.2500
mp-973434,Hf2IrRu,"Hf, Ir, Ru",3,0.030085634999998945,Cubic,225,Fm-3m,0.0,True,True,0.45000000000000007,Hf: 0.5000; Ir: 0.2500; Ru: 0.2500
mp-865588,Y2CuRu,"Cu, Ru, Y",3,0.0,Cubic,225,Fm-3m,0.0,True,True,0.42833981836854723,Y: 0.5000; Cu: 0.2500; Ru: 0.2500
mp-1183048,ZrSnRu2,"Ru, Sn, Zr",3,0.0,Cubic,225,Fm-3m,0.0,True,True,0.3558352849282938,Zr: 0.2500; Sn: 0.2500; Ru: 0.5000
mp-30774,MgNi2Sn,"Mg, Ni, Sn",3,0.0,Cubic,225,Fm-3m,0.0,False,True,0.2678035660703568,Mg: 0.2500; Ni: 0.5000; Sn: 0.2500
mp-977580,MgSc2Al,"Al, Mg, Sc",3,0.0,Cubic,225,Fm-3m,0.0,True,True,0.11726039399558574,Mg: 0.2500; Sc: 0.5000; Al: 0.2500
mp-864940,Mg2PtRh,"Mg, Pt, Rh",3,0.0,Cubic,225,Fm-3m,0.0,True,True,0.4849999999999999,Mg: 0.5000; Pt: 0.2500; Rh: 0.2500
mp-1183136,Al2OsRh,"Al, Os, Rh",3,0.0,Cubic,225,Fm-3m,0.0,True,True,0.3162672920173693,Al: 0.5000; Os: 0.2500; Rh: 0.2500
mp-977578,Zr2TcPd,"Pd, Tc, Zr",3,0.0,Cubic,225,Fm-3m,0.0,True,True,0.3752998800959041,Zr: 0.5000; Tc: 0.2500; Pd: 0.2500
mp-640024,HfInNi2,"Hf, In, Ni",3,0.03463929312096692,Cubic,225,Fm-3m,0.0,False,True,0.25104780421266376,Hf: 0.2500; In: 0.2500; Ni: 0.5000
mp-972866,Sc2PdAu,"Au, Pd, Sc",3,0.008915302500000166,Cubic,225,Fm-3m,0.0,True,True,0.5191098149717457,Sc: 0.5000; Pd: 0.2500; Au: 0.2500
mp-867896,ScZnCu2,"Cu, Sc, Zn",3,0.0,Cubic,225,Fm-3m,0.0,True,True,0.22252808811473657,Sc: 0.2500; Zn: 0.2500; Cu: 0.5000
mp-864878,ZrAlAu2,"Al, Au, Zr",3,0.013352950624998527,Cubic,225,Fm-3m,0.0,True,True,0.544081795321255,Zr: 0.2500; Al: 0.2500; Au: 0.5000
mp-1184770,InNi2Au,"Au, In, Ni",3,0.057278940625000274,Cubic,225,Fm-3m,0.0,True,True,0.2963528302547489,In: 0.2500; Ni: 0.5000; Au: 0.2500
mp-1187461,Ti2VOs,"Os, Ti, V",3,0.0,Cubic,225,Fm-3m,0.0,True,True,0.2752612395525386,Ti: 0.5000; V: 0.2500; Os: 0.2500
mp-866000,CaLaCd2,"Ca, Cd, La",3,0.0,Cubic,225,Fm-3m,0.0,True,True,0.3219472006401049,Ca: 0.2500; La: 0.2500; Cd: 0.5000
mp-1185444,LiScRh2,"Li, Rh, Sc",3,0.01621157499999981,Cubic,225,Fm-3m,0.0,True,True,0.5710297715531125,Li: 0.2500; Sc: 0.2500; Rh: 0.5000
mp-1187764,Y2ZnPt,"Pt, Y, Zn",3,0.022830385000000675,Cubic,225,Fm-3m,0.0,True,True,0.4340146886915234,Y: 0.5000; Zn: 0.2500; Pt: 0.2500
mp-865768,Ti2MnOs,"Mn, Os, Ti",3,0.0,Cubic,225,Fm-3m,0.0,True,True,0.28437431318598383,Ti: 0.5000; Mn: 0.2500; Os: 0.2500
mp-865892,Li2CaPb,"Ca, Li, Pb",3,0.0,Cubic,225,Fm-3m,0.0,True,True,0.5817376986237011,Li: 0.5000; Ca: 0.2500; Pb: 0.2500
mp-30727,MgCdAg2,"Ag, Cd, Mg",3,0.0,Cubic,225,Fm-3m,0.0,False,True,0.2535251466817443,Mg: 0.2500; Cd: 0.2500; Ag: 0.5000
mp-867787,RbTl2Bi,"Bi, Rb, Tl",3,0.012079752239579022,Cubic,225,Fm-3m,0.0,True,True,0.4358898943540674,Rb: 0.2500; Tl: 0.5000; Bi: 0.2500