material_id,formula,elements,num_elements,energy_above_hull,crystal_system,spacegroup_number,spacegroup_symbol,band_gap,theoretical,is_metal,electronegativity_difference,atomic_concentrations
mp-630851,Cs3NaPb4,"Cs, Na, Pb",3,0.0,Orthorhombic,63,Cmcm,0.47540000000000004,False,False,0.7537199413575311,Cs: 0.3750; Na: 0.1250; Pb: 0.5000
mp-1077722,ScZnPt,"Pt, Sc, Zn",3,0.0,Orthorhombic,63,Cmcm,0.0,False,True,0.3840428216864479,Sc: 0.3333; Zn: 0.3333; Pt: 0.3333
mp-16744,Y(Al5Fe)2,"Al, Fe, Y",3,0.0,Orthorhombic,63,Cmcm,0.0,False,True,0.1674904809966519,Y: 0.1429; Al: 0.7143; Fe: 0.1429
mp-1211269,La(Al5Ru)2,"Al, La, Ru",3,0.0,Orthorhombic,63,Cmcm,0.0,True,True,0.29454219059553477,La: 0.1429; Al: 0.7143; Ru: 0.1429
mp-642428,Y3Al19Ni5,"Al, Ni, Y",3,0.00010649944444374171,Orthorhombic,63,Cmcm,0.0,True,True,0.18280394949403383,Y: 0.1111; Al: 0.7037; Ni: 0.1852
mp-1106177,Ga3Ni5Sn2,"Ga, Ni, Sn",3,0.009500597404762168,Orthorhombic,63,Cmcm,0.0,False,True,0.055677643628300175,Ga: 0.3000; Ni: 0.5000; Sn: 0.2000
mp-1211312,La2(Al3Rh)3,"Al, La, Rh",3,0.0,Orthorhombic,63,Cmcm,0.0,True,True,0.3976353717778246,La: 0.3333; Al: 0.5000; Rh: 0.1667
mp-12781,ScAl2Ni,"Al, Ni, Sc",3,0.0,Orthorhombic,63,Cmcm,0.0,False,True,0.19485571585149863,Sc: 0.2500; Al: 0.5000; Ni: 0.2500
mp-672194,CaIn4Ni,"Ca, In, Ni",3,0.01006665249999994,Orthorhombic,63,Cmcm,0.0,False,True,0.304106158365061,Ca: 0.1667; In: 0.6667; Ni: 0.1667
mp-1218852,Sr2CaSn5,"Ca, Sn, Sr",3,0.0061687981249956,Orthorhombic,63,Cmcm,0.0,True,True,0.4811119931990887,Sr: 0.2500; Ca: 0.1250; Sn: 0.6250
mp-1079890,Al2CuIr,"Al, Cu, Ir",3,0.0,Orthorhombic,67,Cmme,0.0,False,True,0.24423349483639628,Al: 0.5000; Cu: 0.2500; Ir: 0.2500
mp-1222000,MnVGa5,"Ga, Mn, V",3,0.028506889065933905,Orthorhombic,65,Cmmm,0.0,True,True,0.10165969642661257,Mn: 0.1429; V: 0.1429; Ga: 0.7143
mp-570765,YMg4Cu,"Cu, Mg, Y",3,0.010836153833333473,Orthorhombic,65,Cmmm,0.0,False,True,0.22895899681432524,Y: 0.1667; Mg: 0.6667; Cu: 0.1667
mp-568040,La2AlNi9,"Al, La, Ni",3,0.0,Orthorhombic,65,Cmmm,0.0,True,True,0.3020761493398642,La: 0.1667; Al: 0.0833; Ni: 0.7500
mp-1222929,LaAlNi4,"Al, La, Ni",3,0.0,Orthorhombic,65,Cmmm,0.0,True,True,0.3002082610455614,La: 0.1667; Al: 0.1667; Ni: 0.6667
mp-1079217,LaGa2Ni,"Ga, La, Ni",3,0.0,Orthorhombic,65,Cmmm,0.0,False,True,0.32445146016006765,La: 0.2500; Ga: 0.5000; Ni: 0.2500
mp-1222896,LaNi3Rh2,"La, Ni, Rh",3,0.0,Orthorhombic,65,Cmmm,0.0,True,True,0.3935063178936548,La: 0.1667; Ni: 0.5000; Rh: 0.3333
mp-1218338,SrCu4Ag,"Ag, Cu, Sr",3,0.024955128333333576,Orthorhombic,65,Cmmm,0.0,True,True,0.35644853142572425,Sr: 0.1667; Cu: 0.6667; Ag: 0.1667
mp-1223006,LaAl2Ag3,"Ag, Al, La",3,0.0,Orthorhombic,65,Cmmm,0.0,True,True,0.29820295102496885,La: 0.1667; Al: 0.3333; Ag: 0.5000
mp-1222898,LaAlCu4,"Al, Cu, La",3,0.0,Orthorhombic,65,Cmmm,0.0,True,True,0.296109026467542,La: 0.1667; Al: 0.1667; Cu: 0.6667
mp-1022697,YHfMg6,"Hf, Mg, Y",3,0.09154102187499946,Orthorhombic,65,Cmmm,0.0,True,True,0.029474565306379017,Y: 0.1250; Hf: 0.1250; Mg: 0.7500
mp-11356,La3Co2Sn7,"Co, La, Sn",3,0.0,Orthorhombic,65,Cmmm,0.0,False,True,0.3658285876685357,La: 0.2500; Co: 0.1667; Sn: 0.5833
mp-1022923,YMg6Zr,"Mg, Y, Zr",3,0.04486890062499915,Orthorhombic,65,Cmmm,0.0,True,True,0.0313996417177012,Y: 0.1250; Mg: 0.7500; Zr: 0.1250
mp-1222949,LaCoNi4,"Co, La, Ni",3,0.03793514250000385,Orthorhombic,65,Cmmm,0.0,True,True,0.2998332870112989,La: 0.1667; Co: 0.1667; Ni: 0.6667
mp-1222871,LaNi4Pt,"La, Ni, Pt",3,0.0,Orthorhombic,65,Cmmm,0.0,True,True,0.3560742743991608,La: 0.1667; Ni: 0.6667; Pt: 0.1667
mp-1216356,Y4ZrNi25,"Ni, Y, Zr",3,0.00715504933333122,Orthorhombic,65,Cmmm,0.0,True,True,0.24959611820343322,Y: 0.1333; Zr: 0.0333; Ni: 0.8333
mp-1207146,La2CdNi2,"Cd, La, Ni",3,0.0,Orthorhombic,65,Cmmm,0.0,True,True,0.36972422154898094,La: 0.4000; Cd: 0.2000; Ni: 0.4000
mp-1225549,LaAl2Cu3,"Al, Cu, La",3,0.0,Orthorhombic,65,Cmmm,0.0,True,True,0.2860069929215018,La: 0.1667; Al: 0.3333; Cu: 0.5000
mp-569523,Y2InNi2,"In, Ni, Y",3,0.0,Orthorhombic,65,Cmmm,0.0,False,True,0.320337322208949,Y: 0.4000; In: 0.2000; Ni: 0.4000
mp-13093,La3Ni2Sn7,"La, Ni, Sn",3,0.0,Orthorhombic,65,Cmmm,0.0,True,True,0.3680202289126086,La: 0.2500; Ni: 0.1667; Sn: 0.5833
mp-974045,La11In9Ni4,"In, La, Ni",3,0.0,Orthorhombic,65,Cmmm,0.0,False,True,0.3614553914385563,La: 0.4583; In: 0.3750; Ni: 0.1667
mp-1222858,LaNi4Rh,"La, Ni, Rh",3,0.0,Orthorhombic,65,Cmmm,0.0,True,True,0.3560742743991608,La: 0.1667; Ni: 0.6667; Rh: 0.1667
mp-865689,Y11In9Ni4,"In, Ni, Y",3,0.0,Orthorhombic,65,Cmmm,0.0,False,True,0.3022002647252315,Y: 0.4583; In: 0.3750; Ni: 0.1667
mp-2647066,Zr2AlCu2,"Al, Cu, Zr",3,0.011170826431192715,Orthorhombic,65,Cmmm,0.0,True,True,0.25491959516678975,Zr: 0.4000; Al: 0.2000; Cu: 0.4000
mp-1192186,La5In11Ni6,"In, La, Ni",3,0.0,Orthorhombic,65,Cmmm,0.0,False,True,0.30905882186389827,La: 0.2273; In: 0.5000; Ni: 0.2727
mp-1195776,Ba(CoSn4)2,"Ba, Co, Sn",3,0.0,Orthorhombic,66,Cccm,0.0,False,True,0.39388732173328733,Ba: 0.1667; Co: 0.1667; Sn: 0.6667
mp-1223260,La(Al5Cu)2,"Al, Cu, La",3,0.024090036410255422,Orthorhombic,69,Fmmm,0.0,True,True,0.21950779819721153,La: 0.1429; Al: 0.7143; Cu: 0.1429
mp-31470,Na4TlAu,"Au, Na, Tl",3,0.01362670479166539,Orthorhombic,69,Fmmm,0.0,False,True,0.6036739370075722,Na: 0.6667; Tl: 0.1667; Au: 0.1667
mp-1216566,TlPdPb,"Pb, Pd, Tl",3,0.0010718883333282747,Orthorhombic,69,Fmmm,0.0,True,True,0.30865298745786773,Tl: 0.3333; Pd: 0.3333; Pb: 0.3333
mp-1218057,Ta5Ga2Sn,"Ga, Sn, Ta",3,0.012114764562497271,Orthorhombic,69,Fmmm,0.0,True,True,0.17958284996067972,Ta: 0.6250; Ga: 0.2500; Sn: 0.1250
mp-1199653,Hf2TiNi3,"Hf, Ni, Ti",3,0.0678306633333321,Orthorhombic,70,Fddd,0.0,True,True,0.2768122107133281,Hf: 0.3333; Ti: 0.1667; Ni: 0.5000
mp-570068,K(Sn3Au2)2,"Au, K, Sn",3,0.0,Orthorhombic,70,Fddd,0.0,False,True,0.5733430231739305,K: 0.1667; Sn: 0.5000; Au: 0.3333
mp-1078231,Sr(GaRh)2,"Ga, Rh, Sr",3,0.0,Orthorhombic,70,Fddd,0.0,False,True,0.5506965286495518,Sr: 0.3333; Ga: 0.3333; Rh: 0.3333
mp-30755,La2Sn5Rh3,"La, Rh, Sn",3,0.0,Orthorhombic,72,Ibam,0.0,False,True,0.4157691667259609,La: 0.2000; Sn: 0.5000; Rh: 0.3000
mp-1213542,Na16Zn11Sn16,"Na, Sn, Zn",3,0.014235040460644388,Orthorhombic,72,Ibam,0.0396999999999994,True,False,0.45318558764854006,Na: 0.3721; Zn: 0.2558; Sn: 0.3721
mp-1211840,LaIn6Ni7,"In, La, Ni",3,0.024461045969387918,Orthorhombic,72,Ibam,0.0,True,True,0.202999195735815,La: 0.0714; In: 0.4286; Ni: 0.5000
mp-1079130,Ba2ZnBi2,"Ba, Bi, Zn",3,0.0,Orthorhombic,72,Ibam,0.0823999999999998,False,False,0.5113355062969909,Ba: 0.4000; Zn: 0.2000; Bi: 0.4000
mp-1203634,Sr6Sn12Pt11,"Pt, Sn, Sr",3,0.0,Orthorhombic,72,Ibam,0.0,False,True,0.4921638020878946,Sr: 0.2069; Sn: 0.4138; Pt: 0.3793
mp-1103999,Ba3InHg10,"Ba, Hg, In",3,0.006839560714287041,Orthorhombic,71,Immm,0.0,False,True,0.45075503551354396,Ba: 0.2143; In: 0.0714; Hg: 0.7143
mp-1068053,Ca2AgPd2,"Ag, Ca, Pd",3,0.0,Orthorhombic,71,Immm,0.0,False,True,0.5526517891041339,Ca: 0.4000; Ag: 0.2000; Pd: 0.4000
mp-1228742,Al9Co2Ni,"Al, Co, Ni",3,0.019566181744792743,Orthorhombic,71,Immm,0.0,True,True,0.1214495780149111,Al: 0.7500; Co: 0.1667; Ni: 0.0833
mp-1216182,Y(VCo5)2,"Co, V, Y",3,0.06290050086784671,Orthorhombic,71,Immm,0.0,True,True,0.23293162700059186,Y: 0.1429; V: 0.1429; Co: 0.7143
mp-1080524,LaAl5Ni2,"Al, La, Ni",3,0.0,Orthorhombic,71,Immm,0.0,False,True,0.23427747971155907,La: 0.1250; Al: 0.6250; Ni: 0.2500
mp-1209292,Sc6InCo2,"Co, In, Sc",3,0.0,Orthorhombic,71,Immm,0.0,True,True,0.23102562521541373,Sc: 0.6667; In: 0.1111; Co: 0.2222
mp-1207941,Y6InCo2,"Co, In, Y",3,0.0,Orthorhombic,71,Immm,0.0,True,True,0.29666458592695194,Y: 0.6667; In: 0.1111; Co: 0.2222
mp-1216218,Y(Co5Mo)2,"Co, Mo, Y",3,0.052966267278103274,Orthorhombic,71,Immm,0.0,True,True,0.2654837709786819,Y: 0.1429; Co: 0.7143; Mo: 0.1429
mp-1222050,Na10Sn4Au13,"Au, Na, Sn",3,0.0014346688888871029,Orthorhombic,71,Immm,0.0,True,True,0.737866460533508,Na: 0.3704; Sn: 0.1481; Au: 0.4815
mp-1102613,La3(ZnPt)4,"La, Pt, Zn",3,0.0,Orthorhombic,71,Immm,0.0,False,True,0.4682563400531806,La: 0.6000; Zn: 0.2000; Pt: 0.2000
mp-1104438,Hf(GaFe)6,"Fe, Ga, Hf",3,0.0,Orthorhombic,71,Immm,0.0,False,True,0.24526629518862872,Hf: 0.3333; Ga: 0.3333; Fe: 0.3333
mp-1104861,Ba3CdHg10,"Ba, Cd, Hg",3,0.01868261142857386,Orthorhombic,71,Immm,0.0,False,True,0.4508721706711496,Ba: 0.2143; Cd: 0.0714; Hg: 0.7143
mp-1103910,Zr(GaFe)6,"Fe, Ga, Zr",3,0.0,Orthorhombic,71,Immm,0.0,False,True,0.2311324776447962,Zr: 0.3333; Ga: 0.3333; Fe: 0.3333
mp-7376,Sr3(AlSn)2,"Al, Sn, Sr",3,0.0,Orthorhombic,71,Immm,0.0,False,True,0.42377352442076893,Sr: 0.6000; Al: 0.2000; Sn: 0.2000
mp-1219472,Sc(AlFe)6,"Al, Fe, Sc",3,0.0,Orthorhombic,71,Immm,0.0,True,True,0.19200694431886223,Sc: 0.3333; Al: 0.3333; Fe: 0.3333
mp-1207809,Y12Co5Bi,"Bi, Co, Y",3,0.0,Orthorhombic,71,Immm,0.0,True,True,0.32353182147382786,Y: 0.6667; Co: 0.2778; Bi: 0.0556
mp-1104485,Y(GaFe)6,"Fe, Ga, Y",3,0.0,Orthorhombic,71,Immm,0.0,False,True,0.2829605390627228,Y: 0.3333; Ga: 0.3333; Fe: 0.3333
mp-1068035,Ca2MgPd2,"Ca, Mg, Pd",3,0.0,Orthorhombic,71,Immm,0.0,False,True,0.5490500887897206,Ca: 0.4000; Mg: 0.2000; Pd: 0.4000
mp-1216200,Y(MnAl)6,"Al, Mn, Y",3,0.044348391472144755,Orthorhombic,71,Immm,0.0,True,True,0.17146428199482253,Y: 0.3333; Mn: 0.3333; Al: 0.3333
mp-1205490,La3(AgSn)4,"Ag, La, Sn",3,0.0,Orthorhombic,71,Immm,0.0,True,True,0.414072457427441,La: 0.6000; Ag: 0.2000; Sn: 0.2000
mp-1227648,Ca(InCu)6,"Ca, Cu, In",3,0.017245787802188772,Orthorhombic,71,Immm,0.0,True,True,0.39899874686520004,Ca: 0.3333; In: 0.3333; Cu: 0.3333
mp-7377,Ba3(AlSn)2,"Al, Ba, Sn",3,0.0,Orthorhombic,71,Immm,0.0,False,True,0.45221233950435274,Ba: 0.6000; Al: 0.2000; Sn: 0.2000
mp-11438,Sc(GaFe)6,"Fe, Ga, Sc",3,0.0,Orthorhombic,71,Immm,0.0,False,True,0.21699974398346392,Sc: 0.3333; Ga: 0.3333; Fe: 0.3333
mp-1201703,Y(FeSn)6,"Fe, Sn, Y",3,0.0323745608974324,Orthorhombic,71,Immm,0.0,False,True,0.3225936556516056,Y: 0.3333; Fe: 0.3333; Sn: 0.3333
mp-1068286,Ca2CdPd2,"Ca, Cd, Pd",3,0.0,Orthorhombic,71,Immm,0.0,False,True,0.5378624359443593,Ca: 0.4000; Cd: 0.2000; Pd: 0.4000
mp-1206356,Y2GaCo2,"Co, Ga, Y",3,0.0,Orthorhombic,71,Immm,0.0,True,True,0.3129472799050984,Y: 0.4000; Ga: 0.2000; Co: 0.4000
mp-1216254,Y(MnCo)6,"Co, Mn, Y",3,0.056120719585798895,Orthorhombic,71,Immm,0.0,True,True,0.2694438717061496,Y: 0.3333; Mn: 0.3333; Co: 0.3333
mp-1070755,Y2GaNi2,"Ga, Ni, Y",3,0.0,Orthorhombic,71,Immm,0.0,False,True,0.32376534712658794,Y: 0.4000; Ga: 0.2000; Ni: 0.4000
mp-1215723,Zr(AlFe)6,"Al, Fe, Zr",3,0.0,Orthorhombic,71,Immm,0.0,True,True,0.2046134567096374,Zr: 0.3333; Al: 0.3333; Fe: 0.3333
mp-13532,La2ZnNi2,"La, Ni, Zn",3,0.00717628366666645,Orthorhombic,71,Immm,0.0,False,True,0.3668569203381612,La: 0.4000; Zn: 0.2000; Ni: 0.4000
mp-1068331,Y2Ni2Sn,"Ni, Sn, Y",3,0.002984275302750916,Orthorhombic,71,Immm,0.0,False,True,0.34667564090948183,Y: 0.4000; Ni: 0.4000; Sn: 0.2000
mp-1207723,Y(GaCo)6,"Co, Ga, Y",3,0.007316756298073379,Orthorhombic,71,Immm,0.0,True,True,0.296010510323911,Y: 0.3333; Ga: 0.3333; Co: 0.3333
mp-1216230,Y(Fe5Mo)2,"Fe, Mo, Y",3,0.016054193846150255,Orthorhombic,71,Immm,0.0,True,True,0.2590642501664128,Y: 0.1429; Fe: 0.7143; Mo: 0.1429
mp-1095575,Y3(CuSn)4,"Cu, Sn, Y",3,0.0,Orthorhombic,71,Immm,0.0,False,True,0.34834465691323585,Y: 0.6000; Cu: 0.2000; Sn: 0.2000
mp-1216159,Y(CrFe5)2,"Cr, Fe, Y",3,0.02563885230769003,Orthorhombic,71,Immm,0.0,True,True,0.21182395463002304,Y: 0.1429; Cr: 0.1429; Fe: 0.7143
mp-1188555,Y6GaCo2,"Co, Ga, Y",3,0.0,Orthorhombic,71,Immm,0.0,False,True,0.300731618179465,Y: 0.6667; Ga: 0.1111; Co: 0.2222
mp-1104155,Y3Ga8Ag3,"Ag, Ga, Y",3,0.013943520357147854,Orthorhombic,71,Immm,0.0,False,True,0.2598753625906709,Y: 0.2143; Ga: 0.5714; Ag: 0.2143
mp-604516,Y2AlNi2,"Al, Ni, Y",3,0.002298067499994616,Orthorhombic,71,Immm,0.0,True,True,0.3091019249373902,Y: 0.4000; Al: 0.2000; Ni: 0.4000
mp-1207811,Y6Co2Sn,"Co, Sn, Y",3,0.006153649537037786,Orthorhombic,71,Immm,0.0,True,True,0.3244292233872502,Y: 0.6667; Co: 0.2222; Sn: 0.1111
mp-1104240,Y3Ga9Pt2,"Ga, Pt, Y",3,0.02050023665816081,Orthorhombic,71,Immm,0.0,False,True,0.3203672955868508,Y: 0.2143; Ga: 0.6429; Pt: 0.1429
mp-1224395,Hf(AlFe)6,"Al, Fe, Hf",3,0.0,Orthorhombic,71,Immm,0.0,True,True,0.21740898478827103,Hf: 0.3333; Al: 0.3333; Fe: 0.3333
mp-1104965,Y3Ga8Rh3,"Ga, Rh, Y",3,0.038483869040177865,Orthorhombic,71,Immm,0.0,False,True,0.34823461479120005,Y: 0.2143; Ga: 0.5714; Rh: 0.2143
mp-1068157,Sr2CdPt2,"Cd, Pt, Sr",3,0.0,Orthorhombic,71,Immm,0.0,False,True,0.5955501658130908,Sr: 0.4000; Cd: 0.2000; Pt: 0.4000
mp-1207776,Y3Co6Sn5,"Co, Sn, Y",3,0.03106438982142823,Orthorhombic,71,Immm,0.0,True,True,0.2879094245326017,Y: 0.2143; Co: 0.4286; Sn: 0.3571
mp-1068002,Ca2MgPt2,"Ca, Mg, Pt",3,0.0,Orthorhombic,71,Immm,0.0,False,True,0.5874555302318635,Ca: 0.4000; Mg: 0.2000; Pt: 0.4000
mp-1216148,Y(AlFe)6,"Al, Fe, Y",3,0.0,Orthorhombic,71,Immm,0.0,True,True,0.25223445883190154,Y: 0.3333; Al: 0.3333; Fe: 0.3333
mp-1101768,La3(ZnPd)4,"La, Pd, Zn",3,0.0,Orthorhombic,71,Immm,0.0,False,True,0.44,La: 0.6000; Zn: 0.2000; Pd: 0.2000
mp-30472,Ca2GaCu2,"Ca, Cu, Ga",3,0.0,Orthorhombic,71,Immm,0.0,False,True,0.427476315133365,Ca: 0.4000; Ga: 0.2000; Cu: 0.4000
mp-1216275,Y(InCu)6,"Cu, In, Y",3,0.0,Orthorhombic,71,Immm,0.0,True,True,0.2963481436119049,Y: 0.3333; In: 0.3333; Cu: 0.3333
mp-1216170,Y(VFe5)2,"Fe, V, Y",3,0.02849733692306522,Orthorhombic,71,Immm,0.0,True,True,0.21326423200588804,Y: 0.1429; V: 0.1429; Fe: 0.7143
mp-1216227,Y(Fe5Re)2,"Fe, Re, Y",3,0.01675607250000155,Orthorhombic,71,Immm,0.0,True,True,0.21887467292717905,Y: 0.1429; Fe: 0.7143; Re: 0.1429
mp-1095231,Ba3(LiBi)4,"Ba, Bi, Li",3,0.0,Orthorhombic,71,Immm,0.0,False,True,0.4443692158554641,Ba: 0.6000; Li: 0.2000; Bi: 0.2000
mp-1216263,Y(Fe5W)2,"Fe, W, Y",3,0.04211727269230714,Orthorhombic,71,Immm,0.0,True,True,0.30521320751372527,Y: 0.1429; Fe: 0.7143; W: 0.1429
mp-1215711,Zr(MnAl)6,"Al, Mn, Zr",3,0.02591070387573957,Orthorhombic,71,Immm,0.0,True,True,0.12036980056845192,Zr: 0.3333; Mn: 0.3333; Al: 0.3333
mp-1207797,Y3Ga9Cu2,"Cu, Ga, Y",3,0.016494450428583995,Orthorhombic,71,Immm,0.0,True,True,0.25070207540474193,Y: 0.2143; Ga: 0.6429; Cu: 0.1429
mp-1216210,Y(AlCu)6,"Al, Cu, Y",3,0.0,Orthorhombic,71,Immm,0.0,True,True,0.2786076492528915,Y: 0.3333; Al: 0.3333; Cu: 0.3333
mp-1069824,Ca2CdPt2,"Ca, Cd, Pt",3,0.0,Orthorhombic,71,Immm,0.0,False,True,0.5727826813024289,Ca: 0.4000; Cd: 0.2000; Pt: 0.4000
mp-31471,K3PbAu5,"Au, K, Pb",3,0.0,Orthorhombic,74,Imma,0.0,False,True,0.79688281586581,K: 0.3333; Pb: 0.1111; Au: 0.5556
mp-1215987,YFeNi,"Fe, Ni, Y",3,0.08217402916667016,Orthorhombic,74,Imma,0.0,True,True,0.30814859330452177,Y: 0.3333; Fe: 0.3333; Ni: 0.3333
mp-976190,K3TlAu5,"Au, K, Tl",3,8.66758994719774e-05,Orthorhombic,74,Imma,0.0,False,True,0.7898116668774922,K: 0.3333; Tl: 0.1111; Au: 0.5556
mp-1215168,ZrVMo,"Mo, V, Zr",3,0.0,Orthorhombic,74,Imma,0.0,True,True,0.34315529364349834,Zr: 0.3333; V: 0.3333; Mo: 0.3333
mp-1215943,YMnFe,"Fe, Mn, Y",3,0.08874174735632145,Orthorhombic,74,Imma,0.0,True,True,0.24931015935086875,Y: 0.3333; Mn: 0.3333; Fe: 0.3333
mp-1215957,YCoNi,"Co, Ni, Y",3,0.02530639683679592,Orthorhombic,74,Imma,0.0,True,True,0.3184336665618131,Y: 0.3333; Co: 0.3333; Ni: 0.3333
mp-1215271,ZrFeCo,"Co, Fe, Zr",3,0.007154175555550424,Orthorhombic,74,Imma,0.0,True,True,0.24832774042918893,Zr: 0.3333; Fe: 0.3333; Co: 0.3333
mp-1215937,YAlFe,"Al, Fe, Y",3,0.00730171570512983,Orthorhombic,74,Imma,0.0,True,True,0.25223445883190154,Y: 0.3333; Al: 0.3333; Fe: 0.3333
mp-1221951,MgZnCu,"Cu, Mg, Zn",3,0.0,Orthorhombic,74,Imma,0.0,True,True,0.24179881444429505,Mg: 0.3333; Zn: 0.3333; Cu: 0.3333
mp-1220374,NbVCr,"Cr, Nb, V",3,0.0,Orthorhombic,74,Imma,0.0,True,True,0.024494897427831713,Nb: 0.3333; V: 0.3333; Cr: 0.3333
mp-1215268,ZrCrW,"Cr, W, Zr",3,0.020403851666671358,Orthorhombic,74,Imma,0.0,True,True,0.42944408509399934,Zr: 0.3333; Cr: 0.3333; W: 0.3333
mp-867331,K3InAu5,"Au, In, K",3,0.0,Orthorhombic,74,Imma,0.0,False,True,0.785900442914266,K: 0.3333; In: 0.1111; Au: 0.5556
mp-1215953,YMnCo,"Co, Mn, Y",3,0.058159105689656876,Orthorhombic,74,Imma,0.0,True,True,0.2694438717061496,Y: 0.3333; Mn: 0.3333; Co: 0.3333
mp-1215269,ZrCrMo,"Cr, Mo, Zr",3,0.018293370000005638,Orthorhombic,74,Imma,0.0,True,True,0.34120700787384517,Zr: 0.3333; Cr: 0.3333; Mo: 0.3333
mp-1215170,ZrVCr,"Cr, V, Zr",3,0.09773371999999725,Orthorhombic,74,Imma,0.0,True,True,0.14899664425751333,Zr: 0.3333; V: 0.3333; Cr: 0.3333
mp-1215234,ZrMnNi,"Mn, Ni, Zr",3,0.04939015625000032,Orthorhombic,74,Imma,0.0,True,True,0.2390722810272147,Zr: 0.3333; Mn: 0.3333; Ni: 0.3333
mp-1215220,ZrMoW,"Mo, W, Zr",3,0.0040009533333247305,Orthorhombic,74,Imma,0.0,True,True,0.4459446901429219,Zr: 0.3333; Mo: 0.3333; W: 0.3333
mp-1215169,ZrVW,"V, W, Zr",3,0.002299322499997203,Orthorhombic,74,Imma,0.0,True,True,0.43253773117369637,Zr: 0.3333; V: 0.3333; W: 0.3333
mp-1224321,HfAlZn,"Al, Hf, Zn",3,0.0,Orthorhombic,74,Imma,0.0,True,True,0.1564182427553342,Hf: 0.3333; Al: 0.3333; Zn: 0.3333
mp-1215958,YFeCo,"Co, Fe, Y",3,0.0,Orthorhombic,74,Imma,0.0,True,True,0.3000370347510824,Y: 0.3333; Fe: 0.3333; Co: 0.3333
mp-1215318,ZrAlCu,"Al, Cu, Zr",3,0.0,Orthorhombic,74,Imma,0.0,True,True,0.23271346234276075,Zr: 0.3333; Al: 0.3333; Cu: 0.3333
mp-1221921,MgZnCo,"Co, Mg, Zn",3,0.0,Orthorhombic,74,Imma,0.0,True,True,0.23414145771781253,Mg: 0.3333; Zn: 0.3333; Co: 0.3333
mp-1215934,YMnAl,"Al, Mn, Y",3,0.04300596763409903,Orthorhombic,74,Imma,0.0,True,True,0.17146428199482253,Y: 0.3333; Mn: 0.3333; Al: 0.3333
mp-1215275,ZrCoNi,"Co, Ni, Zr",3,0.02665756642856998,Orthorhombic,74,Imma,0.0,True,True,0.26662499674428286,Zr: 0.3333; Co: 0.3333; Ni: 0.3333
mp-1256151,Zr5AlNi4,"Al, Ni, Zr",3,0.013505415500001838,Tetragonal,83,P4/m,0.0,False,True,0.2734958866235468,Zr: 0.5000; Al: 0.1000; Ni: 0.4000
mp-31158,Ca7Ni4Sn13,"Ca, Ni, Sn",3,0.0,Tetragonal,83,P4/m,0.0,False,True,0.43137055480822467,Ca: 0.2917; Ni: 0.1667; Sn: 0.5417
mp-637263,Zr5AlNi4,"Al, Ni, Zr",3,0.012875591000002906,Tetragonal,84,P4_2/m,0.0,True,True,0.2734958866235468,Zr: 0.5000; Al: 0.1000; Ni: 0.4000
mp-1227579,Ca20(CdGa3)3,"Ca, Cd, Ga",3,0.0,Tetragonal,89,P422,0.0,True,True,0.29146183283579347,Ca: 0.8333; Cd: 0.0417; Ga: 0.1250
mp-1094154,Ca3(MgZn2)5,"Ca, Mg, Zn",3,0.0052878260222219975,Monoclinic,9,Cc,0.0,True,True,0.29128546517501036,Ca: 0.5000; Mg: 0.1667; Zn: 0.3333
mp-1095684,SrInPd,"In, Pd, Sr",3,0.0,Orthorhombic,62,Pnma,0.0,False,True,0.5193799722318484,Sr: 0.3333; In: 0.3333; Pd: 0.3333
mp-1103109,LaAlPt,"Al, La, Pt",3,0.0,Orthorhombic,62,Pnma,0.0,False,True,0.48320688000988643,La: 0.3333; Al: 0.3333; Pt: 0.3333
mp-21523,La(In2Au)2,"Au, In, La",3,0.0,Orthorhombic,62,Pnma,0.0,False,True,0.5095095681142798,La: 0.2500; In: 0.5000; Au: 0.2500
mp-1105559,YGaPd2,"Ga, Pd, Y",3,0.0,Orthorhombic,62,Pnma,0.0,False,True,0.4010221315588456,Y: 0.2500; Ga: 0.2500; Pd: 0.5000
mp-30652,Sc3(MnGa3)2,"Ga, Mn, Sc",3,0.0003116572511743243,Orthorhombic,62,Pnma,0.0,False,True,0.20866925298868813,Sc: 0.4286; Mn: 0.1429; Ga: 0.4286
mp-30456,SrLiBi,"Bi, Li, Sr",3,0.0,Orthorhombic,62,Pnma,0.5558000000000001,False,False,0.4974825513411389,Sr: 0.3333; Li: 0.3333; Bi: 0.3333
mp-1195613,Sr2Al5Pd4,"Al, Pd, Sr",3,0.0,Orthorhombic,62,Pnma,0.0,False,True,0.4436698944109366,Sr: 0.1818; Al: 0.4545; Pd: 0.3636
mp-1103314,SrMgPb,"Mg, Pb, Sr",3,0.0,Orthorhombic,62,Pnma,0.0,False,True,0.5844655678480983,Sr: 0.3333; Mg: 0.3333; Pb: 0.3333
mp-4054,YAl3Ni,"Al, Ni, Y",3,0.0,Orthorhombic,62,Pnma,0.0,False,True,0.21930800258996477,Y: 0.2000; Al: 0.6000; Ni: 0.2000
mp-1211364,LaAlNi,"Al, La, Ni",3,0.0,Orthorhombic,62,Pnma,0.0,True,True,0.3343650699460097,La: 0.3333; Al: 0.3333; Ni: 0.3333
mp-30780,SrMgSn,"Mg, Sn, Sr",3,0.0,Orthorhombic,62,Pnma,0.0,False,True,0.41795799895311114,Sr: 0.3333; Mg: 0.3333; Sn: 0.3333
mp-1095544,ScGaPd,"Ga, Pd, Sc",3,0.0,Orthorhombic,62,Pnma,0.0,False,True,0.3432200460346103,Sc: 0.3333; Ga: 0.3333; Pd: 0.3333