material_id,formula,elements,num_elements,energy_above_hull,crystal_system,spacegroup_number,spacegroup_symbol,band_gap,theoretical,is_metal,electronegativity_difference,atomic_concentrations
mp-1210716,Mg6NiSn,"Mg, Ni, Sn",3,0.01460443260416655,Tetragonal,101,P4_2cm,0.0,True,True,0.27092146002116546,Mg: 0.7500; Ni: 0.1250; Sn: 0.1250
mp-31407,Ba5In4Bi5,"Ba, Bi, In",3,0.001364918736263654,Tetragonal,104,P4nc,0.0,False,True,0.4995737979436439,Ba: 0.3571; In: 0.2857; Bi: 0.3571
mp-1225200,FeCoSn2,"Co, Fe, Sn",3,0.025383974166666157,Monoclinic,10,P2/m,0.0,True,True,0.055396299515400815,Fe: 0.2500; Co: 0.2500; Sn: 0.5000
mp-1215564,ZnCuAu2,"Au, Cu, Zn",3,0.015102307499998968,Monoclinic,10,P2/m,0.0,True,True,0.3925796097608739,Zn: 0.2500; Cu: 0.2500; Au: 0.5000
mp-607475,Zr4In5Co2,"Co, In, Zr",3,0.0,Monoclinic,10,P2/m,0.0,False,True,0.23301828396320534,Zr: 0.3636; In: 0.4545; Co: 0.1818
mp-1215609,ZnGa11Co4,"Co, Ga, Zn",3,0.0,Monoclinic,10,P2/m,0.2397999999999998,True,False,0.052618912949622954,Zn: 0.0625; Ga: 0.6875; Co: 0.2500
mp-1223301,La2Al3Cu7,"Al, Cu, La",3,0.0,Monoclinic,10,P2/m,0.0,True,True,0.29210324468508647,La: 0.1667; Al: 0.2500; Cu: 0.5833
mp-1227912,Ca11(Cd9Au2)2,"Au, Ca, Cd",3,0.007351352121213184,Tetragonal,109,I4_1md,0.0,True,True,0.4817197583863825,Ca: 0.5000; Cd: 0.4091; Au: 0.0909
mp-1225981,La2Al7Ni,"Al, La, Ni",3,0.005589797749989245,Tetragonal,109,I4_1md,0.0,True,True,0.23629642401018258,La: 0.2000; Al: 0.7000; Ni: 0.1000
mp-1223390,La6Al3Fe11,"Al, Fe, La",3,0.010637716949998932,Tetragonal,108,I4cm,0.0,True,True,0.32190992528966855,La: 0.3000; Al: 0.1500; Fe: 0.5500
mp-1223645,La6Ga3Co11,"Co, Ga, La",3,0.0,Tetragonal,108,I4cm,0.0,True,True,0.3513897408860992,La: 0.3000; Ga: 0.1500; Co: 0.5500
mp-1055899,NbInNi,"In, Nb, Ni",3,0.09176686190476246,Tetragonal,107,I4mm,0.0,True,True,0.12710450643291737,Nb: 0.3333; In: 0.3333; Ni: 0.3333
mp-1227349,BaZnIn3,"Ba, In, Zn",3,0.0,Tetragonal,107,I4mm,0.0,True,True,0.34667564090948183,Ba: 0.2000; Zn: 0.2000; In: 0.6000
mp-30805,SrNiSn3,"Ni, Sn, Sr",3,0.0,Tetragonal,107,I4mm,0.0,False,True,0.3994696484089874,Sr: 0.2000; Ni: 0.2000; Sn: 0.6000
mp-1201034,ZrGa2Co,"Co, Ga, Zr",3,0.0,Tetragonal,107,I4mm,0.0,False,True,0.21981526334629264,Zr: 0.2500; Ga: 0.5000; Co: 0.2500
mp-30433,BaSn3Pt,"Ba, Pt, Sn",3,0.0,Tetragonal,107,I4mm,0.0,False,True,0.47640319058545355,Ba: 0.2000; Sn: 0.6000; Pt: 0.2000
mp-1216850,TiCuNi,"Cu, Ni, Ti",3,0.0,Tetragonal,107,I4mm,0.0,True,True,0.17211107524567443,Ti: 0.3333; Cu: 0.3333; Ni: 0.3333
mp-1227345,BaTl3Au,"Au, Ba, Tl",3,0.013759600333332234,Tetragonal,107,I4mm,0.0,True,True,0.5238473059966998,Ba: 0.2000; Tl: 0.6000; Au: 0.2000
mp-1227962,BaCd3Ga,"Ba, Cd, Ga",3,0.0010694490000009438,Tetragonal,107,I4mm,0.0,True,True,0.3352372294361114,Ba: 0.2000; Cd: 0.6000; Ga: 0.2000
mp-1218256,SrIn3Hg,"Hg, In, Sr",3,0.0001848974444444984,Tetragonal,107,I4mm,0.0,True,True,0.36410987352720886,Sr: 0.2000; In: 0.6000; Hg: 0.2000
mp-1200150,ZrGa2Ni,"Ga, Ni, Zr",3,0.0,Tetragonal,107,I4mm,0.0,False,True,0.22599778759979042,Zr: 0.2500; Ga: 0.5000; Ni: 0.2500
mp-30834,SrSn3Pd,"Pd, Sn, Sr",3,0.0,Tetragonal,107,I4mm,0.0,False,True,0.43797716835469863,Sr: 0.2000; Sn: 0.6000; Pd: 0.2000
mp-30269,HfGa2Ni,"Ga, Hf, Ni",3,0.0,Tetragonal,107,I4mm,0.0,False,True,0.23878599205146014,Hf: 0.2500; Ga: 0.5000; Ni: 0.2500
mp-1216602,Tl2Pd9Pb,"Pb, Pd, Tl",3,0.009856629166669961,Tetragonal,107,I4mm,0.0,True,True,0.22384735622492596,Tl: 0.1667; Pd: 0.7500; Pb: 0.0833
mp-1227967,BaGa3Sn,"Ba, Ga, Sn",3,0.019365479500000227,Tetragonal,107,I4mm,0.0,True,True,0.38738094945415164,Ba: 0.2000; Ga: 0.6000; Sn: 0.2000
mp-1068048,BaSn3Au,"Au, Ba, Sn",3,0.0,Tetragonal,107,I4mm,0.0,False,True,0.5354026522160682,Ba: 0.2000; Sn: 0.6000; Au: 0.2000
mp-1069603,LaAl3Au,"Al, Au, La",3,0.0,Tetragonal,107,I4mm,0.0,False,True,0.4668447279342458,La: 0.2000; Al: 0.6000; Au: 0.2000
mp-1215181,ZrTiCu,"Cu, Ti, Zr",3,0.01745571666666912,Tetragonal,107,I4mm,0.0,True,True,0.23537204591879632,Zr: 0.3333; Ti: 0.3333; Cu: 0.3333
mp-1217777,SrZnIn3,"In, Sr, Zn",3,0.0,Tetragonal,107,I4mm,0.0,True,True,0.32294891236850454,Sr: 0.2000; Zn: 0.2000; In: 0.6000
mp-11879,BaNiSn3,"Ba, Ni, Sn",3,0.0,Tetragonal,107,I4mm,0.0,False,True,0.4234430304066888,Ba: 0.2000; Ni: 0.2000; Sn: 0.6000
mp-1070573,LaAl3Cu,"Al, Cu, La",3,0.0,Tetragonal,107,I4mm,0.0,False,True,0.2586580754587028,La: 0.2000; Al: 0.6000; Cu: 0.2000
mp-11269,BaSn3Pd,"Ba, Pd, Sn",3,0.0,Tetragonal,107,I4mm,0.0,False,True,0.46145855718579976,Ba: 0.2000; Sn: 0.6000; Pd: 0.2000
mp-1226791,CaAl3Au,"Al, Au, Ca",3,0.0,Tetragonal,107,I4mm,0.0,True,True,0.4932585528908749,Ca: 0.2000; Al: 0.6000; Au: 0.2000
mp-21660,HfGa2Co,"Co, Ga, Hf",3,0.0,Tetragonal,107,I4mm,0.0,False,True,0.23270152556440188,Hf: 0.2500; Ga: 0.5000; Co: 0.2500
mp-1218236,SrIn3Au,"Au, In, Sr",3,0.0,Tetragonal,107,I4mm,0.0,True,True,0.5030944245367862,Sr: 0.2000; In: 0.6000; Au: 0.2000
mp-1227072,CaGa3Pt,"Ca, Ga, Pt",3,0.0,Tetragonal,107,I4mm,0.0,True,True,0.4132505293402538,Ca: 0.2000; Ga: 0.6000; Pt: 0.2000
mp-1218359,SrAl3Ag,"Ag, Al, Sr",3,0.0,Tetragonal,107,I4mm,0.0,True,True,0.32089873792210527,Sr: 0.2000; Al: 0.6000; Ag: 0.2000
mp-1227995,BaIn3Pt,"Ba, In, Pt",3,0.002311426500001712,Tetragonal,107,I4mm,0.0,True,True,0.4498177408684544,Ba: 0.2000; In: 0.6000; Pt: 0.2000
mp-1228096,K4Cu4Sn7,"Cu, K, Sn",3,0.0,Tetragonal,111,P-42m,0.7216,True,False,0.49509595029650566,K: 0.2667; Cu: 0.2667; Sn: 0.4667
mp-1218786,Sr2Mg3In5,"In, Mg, Sr",3,0.01724783999999957,Tetragonal,115,P-4m2,0.0,True,True,0.3313623394412829,Sr: 0.2000; Mg: 0.3000; In: 0.5000
mp-1228403,Ba2Ga7Ag,"Ag, Ba, Ga",3,0.008028120333336553,Tetragonal,115,P-4m2,0.0,True,True,0.37568071550187404,Ba: 0.2000; Ga: 0.7000; Ag: 0.1000
mp-1223052,La2ZnBi4,"Bi, La, Zn",3,0.0,Tetragonal,115,P-4m2,0.0,True,True,0.4021320729332996,La: 0.2857; Zn: 0.1429; Bi: 0.5714
mp-1220675,Nb2(AlGa)3,"Al, Ga, Nb",3,0.009516227500000696,Tetragonal,115,P-4m2,0.0,True,True,0.08958236433584457,Nb: 0.5000; Al: 0.2500; Ga: 0.2500
mp-1227351,Ca2Ga7Ag,"Ag, Ca, Ga",3,0.0,Tetragonal,115,P-4m2,0.0,True,True,0.33190360046254397,Ca: 0.2000; Ga: 0.7000; Ag: 0.1000
mp-1223437,La2Ga7Co,"Co, Ga, La",3,0.053426811999996104,Tetragonal,115,P-4m2,0.0,True,True,0.28824468772208095,La: 0.2000; Ga: 0.7000; Co: 0.1000
mp-1223339,La2Ga5Cu3,"Cu, Ga, La",3,0.002513400000015764,Tetragonal,115,P-4m2,0.0,True,True,0.3000416637735499,La: 0.2000; Ga: 0.5000; Cu: 0.3000
mp-1218558,Sr4Sn9Au7,"Au, Sn, Sr",3,0.010807606750005139,Tetragonal,115,P-4m2,0.0,True,True,0.5672380452684747,Sr: 0.2000; Sn: 0.4500; Au: 0.3500
mp-1223453,La2Ga5Au3,"Au, Ga, La",3,0.027713350437953643,Tetragonal,115,P-4m2,0.0,True,True,0.5047385461800991,La: 0.2000; Ga: 0.5000; Au: 0.3000
mp-1215365,Zr5AlNi4,"Al, Ni, Zr",3,0.05074680850000313,Tetragonal,118,P-4n2,0.0,True,True,0.2734958866235468,Zr: 0.5000; Al: 0.1000; Ni: 0.4000
mp-571443,SrMgIn3,"In, Mg, Sr",3,0.0,Tetragonal,119,I-4m2,0.0,False,True,0.3381715540964379,Sr: 0.2000; Mg: 0.2000; In: 0.6000
mp-1222026,Mn2GaNi,"Ga, Mn, Ni",3,0.0848165949999995,Tetragonal,119,I-4m2,0.0,True,True,0.15898113095584643,Mn: 0.5000; Ga: 0.2500; Ni: 0.2500
mp-1223040,LaGa3Ni,"Ga, La, Ni",3,0.03819668966666967,Tetragonal,119,I-4m2,0.0,True,True,0.29654004788561017,La: 0.2000; Ga: 0.6000; Ni: 0.2000
mp-1227390,BaTlIn3,"Ba, In, Tl",3,0.012278902500000743,Tetragonal,119,I-4m2,0.0,True,True,0.3456009259246856,Ba: 0.2000; Tl: 0.2000; In: 0.6000
mp-1215945,YGa3Cu,"Cu, Ga, Y",3,0.013742773100000605,Tetragonal,119,I-4m2,0.0,True,True,0.24746716953971895,Y: 0.2000; Ga: 0.6000; Cu: 0.2000
mp-1218230,SrInAu5,"Au, In, Sr",3,0.0,Tetragonal,119,I-4m2,0.0,True,True,0.5752976159682704,Sr: 0.1429; In: 0.1429; Au: 0.7143
mp-1227881,BaMgIn3,"Ba, In, Mg",3,0.0,Tetragonal,119,I-4m2,0.0,True,True,0.35863072930244,Ba: 0.2000; Mg: 0.2000; In: 0.6000
mp-1222853,LaGa3Cu,"Cu, Ga, La",3,0.0,Tetragonal,119,I-4m2,0.0,True,True,0.29506609429075376,La: 0.2000; Ga: 0.6000; Cu: 0.2000
mp-1222842,LaGa3Pd,"Ga, La, Pd",3,0.0,Tetragonal,119,I-4m2,0.0,True,True,0.35657257325823594,La: 0.2000; Ga: 0.6000; Pd: 0.2000
mp-1222794,LaGa3Pt,"Ga, La, Pt",3,0.0,Tetragonal,119,I-4m2,0.0,True,True,0.3777512408980279,La: 0.2000; Ga: 0.6000; Pt: 0.2000
mp-1215933,YAl3Ag,"Ag, Al, Y",3,0.00486114486666267,Tetragonal,119,I-4m2,0.0,True,True,0.22517548712060112,Y: 0.2000; Al: 0.6000; Ag: 0.2000
mp-30402,K(SnAu2)2,"Au, K, Sn",3,0.011057364857141927,Tetragonal,120,I-4c2,0.0,False,True,0.7021929934142037,K: 0.2500; Sn: 0.2500; Au: 0.5000
mp-1195947,K23(Sn3Au4)3,"Au, K, Sn",3,0.0,Tetragonal,121,I-42m,0.0,False,True,0.6376014080564405,K: 0.7667; Sn: 0.1000; Au: 0.1333
mp-639910,Y(Sn3Ru2)2,"Ru, Sn, Y",3,0.0,Tetragonal,121,I-42m,0.0,False,True,0.32952828238087384,Y: 0.1667; Sn: 0.5000; Ru: 0.3333
mp-1206665,La(Sn3Ru2)2,"La, Ru, Sn",3,0.0,Tetragonal,121,I-42m,0.0,True,True,0.3720961643924263,La: 0.1667; Sn: 0.5000; Ru: 0.3333
mp-571599,Ba(BiPd)2,"Ba, Bi, Pd",3,0.0,Monoclinic,11,P2_1/m,0.0,False,True,0.5797892337354632,Ba: 0.3333; Bi: 0.3333; Pd: 0.3333
mp-1080049,Sr(ZnSn)2,"Sn, Sr, Zn",3,0.0,Monoclinic,11,P2_1/m,0.0,False,True,0.4224531532213562,Sr: 0.3333; Zn: 0.3333; Sn: 0.3333
mp-1199411,La3(GaRu)2,"Ga, La, Ru",3,0.0,Monoclinic,11,P2_1/m,0.0,False,True,0.460191264584629,La: 0.6000; Ga: 0.2000; Ru: 0.2000
mp-567114,Sr(BiPd)2,"Bi, Pd, Sr",3,0.0,Monoclinic,11,P2_1/m,0.0,False,True,0.5517447074709664,Sr: 0.3333; Bi: 0.3333; Pd: 0.3333
mp-1223139,La4BiPb2,"Bi, La, Pb",3,0.0034080561904721307,Tetragonal,122,I-42d,0.0,True,True,0.5657034630999401,La: 0.5714; Bi: 0.1429; Pb: 0.2857
mp-1223111,La4Bi2Pb,"Bi, La, Pb",3,0.005964323809522831,Tetragonal,122,I-42d,0.0,True,True,0.5153758287870699,La: 0.5714; Bi: 0.2857; Pb: 0.1429
mp-1223150,La4SnBi2,"Bi, La, Sn",3,0.0019154035714299411,Tetragonal,122,I-42d,0.0,True,True,0.44576922738299535,La: 0.5714; Sn: 0.1429; Bi: 0.2857
mp-1213732,CrSn4Au,"Au, Cr, Sn",3,0.0667095831250002,Tetragonal,124,P4/mcc,0.0,True,True,0.26246692913372704,Cr: 0.1667; Sn: 0.6667; Au: 0.1667
mp-1221656,MnAl2Ni,"Al, Mn, Ni",3,0.0,Tetragonal,123,P4/mmm,0.0,True,True,0.14071247279470284,Mn: 0.2500; Al: 0.5000; Ni: 0.2500
mp-1216906,TiInPd2,"In, Pd, Ti",3,0.02645577750000072,Tetragonal,123,P4/mmm,0.0,True,True,0.28301943396169815,Ti: 0.2500; In: 0.2500; Pd: 0.5000
mp-1224169,HfTiRu2,"Hf, Ru, Ti",3,0.03254705500000199,Tetragonal,123,P4/mmm,0.0,True,True,0.3991240408695022,Hf: 0.2500; Ti: 0.2500; Ru: 0.5000
mp-1221728,MnCrPt6,"Cr, Mn, Pt",3,0.008186998749998509,Tetragonal,123,P4/mmm,0.0,True,True,0.29357441560871744,Mn: 0.1250; Cr: 0.1250; Pt: 0.7500
mp-1217016,TiAlCo2,"Al, Co, Ti",3,0.08672172499999853,Tetragonal,123,P4/mmm,0.0,True,True,0.15449514555480368,Ti: 0.2500; Al: 0.2500; Co: 0.5000
mp-1063566,MgSc2Ru,"Mg, Ru, Sc",3,0.0,Tetragonal,123,P4/mmm,0.0,False,True,0.3715087482146282,Mg: 0.2500; Sc: 0.5000; Ru: 0.2500
mp-1221660,MnAl2Cu,"Al, Cu, Mn",3,0.004662129930553149,Tetragonal,123,P4/mmm,0.0,True,True,0.13645054048995184,Mn: 0.2500; Al: 0.5000; Cu: 0.2500
mp-1215216,ZrNbAl6,"Al, Nb, Zr",3,0.023704568750000377,Tetragonal,123,P4/mmm,0.0,True,True,0.09218697033746147,Zr: 0.1250; Nb: 0.1250; Al: 0.7500
mp-1206867,Sc2Ga8Co,"Co, Ga, Sc",3,0.0010929618181751977,Tetragonal,123,P4/mmm,0.0,True,True,0.17768018441538236,Sc: 0.1818; Ga: 0.7273; Co: 0.0909
mp-1224798,Ga2CoNi,"Co, Ga, Ni",3,0.02207934226190389,Tetragonal,123,P4/mmm,0.0,True,True,0.04380353866983801,Ga: 0.5000; Co: 0.2500; Ni: 0.2500
mp-1228540,Al2VNi9,"Al, Ni, V",3,0.0,Tetragonal,123,P4/mmm,0.0,True,True,0.1271045064329174,Al: 0.1667; V: 0.0833; Ni: 0.7500
mp-1101092,Y2In8Co,"Co, In, Y",3,0.012039540606059163,Tetragonal,123,P4/mmm,0.0,False,True,0.22210116078002545,Y: 0.1818; In: 0.7273; Co: 0.0909
mp-20551,GaCo2Ni,"Co, Ga, Ni",3,0.07967344884615457,Tetragonal,123,P4/mmm,0.0,False,True,0.036742346141747616,Ga: 0.2500; Co: 0.5000; Ni: 0.2500
mp-1220329,NbAl6Mo,"Al, Mo, Nb",3,0.02669873750000029,Tetragonal,123,P4/mmm,0.0,True,True,0.1823972313386363,Nb: 0.1250; Al: 0.7500; Mo: 0.1250
mp-1217044,TiAlNi6,"Al, Ni, Ti",3,0.0,Tetragonal,123,P4/mmm,0.0,True,True,0.1461110450992668,Ti: 0.1250; Al: 0.1250; Ni: 0.7500
mp-1221548,MnTlRh2,"Mn, Rh, Tl",3,0.057016824166666424,Tetragonal,123,P4/mmm,0.0,True,True,0.34838018026288453,Mn: 0.2500; Tl: 0.2500; Rh: 0.5000
mp-1226004,CoNiPt2,"Co, Ni, Pt",3,0.0,Tetragonal,123,P4/mmm,0.0,True,True,0.1927919863479807,Co: 0.2500; Ni: 0.2500; Pt: 0.5000
mp-1222139,Mg4CdAg5,"Ag, Cd, Mg",3,0.0,Tetragonal,123,P4/mmm,0.0,True,True,0.2924653825668945,Mg: 0.4000; Cd: 0.1000; Ag: 0.5000
mp-1018799,MgSc3Ru2,"Mg, Ru, Sc",3,0.0,Tetragonal,123,P4/mmm,0.0,False,True,0.40226097112308684,Mg: 0.1667; Sc: 0.5000; Ru: 0.3333
mp-1217071,Ti2CuNi,"Cu, Ni, Ti",3,0.07055507499999969,Tetragonal,123,P4/mmm,0.0,True,True,0.18253424336271806,Ti: 0.5000; Cu: 0.2500; Ni: 0.2500
mp-21479,LaIn5Rh,"In, La, Rh",3,0.0,Tetragonal,123,P4/mmm,0.0,False,True,0.31797830756457685,La: 0.1429; In: 0.7143; Rh: 0.1429
mp-1217893,TaNbAl6,"Al, Nb, Ta",3,0.0,Tetragonal,123,P4/mmm,0.0,True,True,0.036055512754639925,Ta: 0.1250; Nb: 0.1250; Al: 0.7500
mp-1224173,HfZn2Ga,"Ga, Hf, Zn",3,0.0,Tetragonal,123,P4/mmm,0.0,True,True,0.18646380345793656,Hf: 0.2500; Zn: 0.5000; Ga: 0.2500
mp-1217015,TiAl2V,"Al, Ti, V",3,0.023320597916669072,Tetragonal,123,P4/mmm,0.0,True,True,0.034186985827943335,Ti: 0.2500; Al: 0.5000; V: 0.2500
mp-1218140,TaAl4Ni15,"Al, Ni, Ta",3,0.005408968499999389,Tetragonal,123,P4/mmm,0.0,True,True,0.1411550565867195,Ta: 0.0500; Al: 0.2000; Ni: 0.7500
mp-639659,InCuPt2,"Cu, In, Pt",3,0.0,Tetragonal,123,P4/mmm,0.0,False,True,0.2240535650240807,In: 0.2500; Cu: 0.2500; Pt: 0.5000
mp-1207127,CuSnPd2,"Cu, Pd, Sn",3,0.06613828374999997,Tetragonal,123,P4/mmm,0.0,True,True,0.13665650368716462,Cu: 0.2500; Sn: 0.2500; Pd: 0.5000
mp-1224993,FeCoPt2,"Co, Fe, Pt",3,0.04885977208333525,Tetragonal,123,P4/mmm,0.0,True,True,0.21323402636539968,Fe: 0.2500; Co: 0.2500; Pt: 0.5000
mp-1025229,TiGa5Co,"Co, Ga, Ti",3,0.009694247500000586,Tetragonal,123,P4/mmm,0.0,True,True,0.10147886077244593,Ti: 0.1429; Ga: 0.7143; Co: 0.1429
mp-1222424,Li3Tl2Cd,"Cd, Li, Tl",3,0.0,Tetragonal,123,P4/mmm,0.0,True,True,0.3324864241171694,Li: 0.5000; Tl: 0.3333; Cd: 0.1667
mp-1218003,TaAl2Ni9,"Al, Ni, Ta",3,0.0,Tetragonal,123,P4/mmm,0.0,True,True,0.14806858395877073,Ta: 0.0833; Al: 0.1667; Ni: 0.7500
mp-1224331,Hf4AgPd,"Ag, Hf, Pd",3,0.0020798783333333404,Tetragonal,123,P4/mmm,0.0,True,True,0.3689512162874653,Hf: 0.6667; Ag: 0.1667; Pd: 0.1667
mp-1215438,Zn2CuNi,"Cu, Ni, Zn",3,0.009078507499999944,Tetragonal,123,P4/mmm,0.0,True,True,0.12754901018824097,Zn: 0.5000; Cu: 0.2500; Ni: 0.2500
mp-570863,CrCoPt2,"Co, Cr, Pt",3,0.03671428916666919,Tetragonal,123,P4/mmm,0.0,False,True,0.2665989497353656,Cr: 0.2500; Co: 0.2500; Pt: 0.5000
mp-1228905,Al2FeCo,"Al, Co, Fe",3,0.00044176249999949846,Tetragonal,123,P4/mmm,0.0,True,True,0.12376893794486557,Al: 0.5000; Fe: 0.2500; Co: 0.2500
mp-1217022,TiAlAu2,"Al, Au, Ti",3,0.042965133124997834,Tetragonal,123,P4/mmm,0.0,True,True,0.48313429809940006,Ti: 0.2500; Al: 0.2500; Au: 0.5000
mp-20911,LaIn5Ir,"In, Ir, La",3,0.0,Tetragonal,123,P4/mmm,0.0,False,True,0.299795848904564,La: 0.1429; In: 0.7143; Ir: 0.1429
mp-1217285,TiAl4Ni15,"Al, Ni, Ti",3,0.006356241499999804,Tetragonal,123,P4/mmm,0.0,True,True,0.1366848565130753,Ti: 0.0500; Al: 0.2000; Ni: 0.7500
mp-1215460,Zn2AgAu,"Ag, Au, Zn",3,0.024396187499998945,Tetragonal,123,P4/mmm,0.0,True,True,0.36341264424893094,Zn: 0.5000; Ag: 0.2500; Au: 0.2500
mp-1228973,Al3ZnCr8,"Al, Cr, Zn",3,0.016436879999998766,Tetragonal,123,P4/mmm,0.0,True,True,0.021343747458109418,Al: 0.2500; Zn: 0.0833; Cr: 0.6667
mp-1217891,TaTiAl6,"Al, Ta, Ti",3,0.0,Tetragonal,123,P4/mmm,0.0,True,True,0.04023369234857774,Ta: 0.1250; Ti: 0.1250; Al: 0.7500
mp-1222616,Li2TlHg,"Hg, Li, Tl",3,0.0,Tetragonal,123,P4/mmm,0.0,True,True,0.43620522692879327,Li: 0.5000; Tl: 0.2500; Hg: 0.2500
mp-1216351,VGaNi6,"Ga, Ni, V",3,0.0,Tetragonal,123,P4/mmm,0.0,True,True,0.09377499666755526,V: 0.1250; Ga: 0.1250; Ni: 0.7500
mp-1220476,NbAl2Ni9,"Al, Nb, Ni",3,0.0,Tetragonal,123,P4/mmm,0.0,True,True,0.13136833289986163,Nb: 0.0833; Al: 0.1667; Ni: 0.7500
mp-1025176,HfGa5Ni,"Ga, Hf, Ni",3,0.026785833142852766,Tetragonal,123,P4/mmm,0.0,False,True,0.18749693875052018,Hf: 0.1429; Ga: 0.7143; Ni: 0.1429
mp-1217921,TaGaNi6,"Ga, Ni, Ta",3,0.0,Tetragonal,123,P4/mmm,0.0,True,True,0.13490158449773668,Ta: 0.1250; Ga: 0.1250; Ni: 0.7500
mp-1228186,Al4Ni3Pt,"Al, Ni, Pt",3,0.034728817187500205,Tetragonal,123,P4/mmm,0.0,True,True,0.22660193622297217,Al: 0.5000; Ni: 0.3750; Pt: 0.1250
mp-1215496,ZnCdAg2,"Ag, Cd, Zn",3,0.0,Tetragonal,123,P4/mmm,0.0,True,True,0.1307669683062202,Zn: 0.2500; Cd: 0.2500; Ag: 0.5000
mp-1228135,Al5CuMo2,"Al, Cu, Mo",3,0.03185007267361151,Tetragonal,123,P4/mmm,0.0,True,True,0.23653422056861034,Al: 0.6250; Cu: 0.1250; Mo: 0.2500
mp-1208235,Ti4(NbAl3)3,"Al, Nb, Ti",3,0.04342175805000181,Tetragonal,123,P4/mmm,0.0,True,True,0.03388860427931493,Ti: 0.5000; Nb: 0.1250; Al: 0.3750
mp-1228906,AlCrFe2,"Al, Cr, Fe",3,0.02413916124999904,Tetragonal,123,P4/mmm,0.0,True,True,0.09908960591303209,Al: 0.2500; Cr: 0.2500; Fe: 0.5000
mp-1222110,MnGa2Ni9,"Ga, Mn, Ni",3,0.007107115833335342,Tetragonal,123,P4/mmm,0.0,True,True,0.10143416036468622,Mn: 0.0833; Ga: 0.1667; Ni: 0.7500
mp-1217098,Ti4CuAg,"Ag, Cu, Ti",3,0.0,Tetragonal,123,P4/mmm,0.0,True,True,0.1769887002042785,Ti: 0.6667; Cu: 0.1667; Ag: 0.1667
mp-1221572,MnInRh2,"In, Mn, Rh",3,0.02662982500000055,Tetragonal,123,P4/mmm,0.0,True,True,0.31807035385272847,Mn: 0.2500; In: 0.2500; Rh: 0.5000
mp-1228554,Al2Ni9Pd,"Al, Ni, Pd",3,0.05333080145833158,Tetragonal,123,P4/mmm,0.0,True,True,0.1460854962760582,Al: 0.1667; Ni: 0.7500; Pd: 0.0833
mp-1215228,ZrTi4Be5,"Be, Ti, Zr",3,0.021402921249999984,Tetragonal,123,P4/mmm,0.0,True,True,0.06945502141674134,Zr: 0.1000; Ti: 0.4000; Be: 0.5000
mp-1215336,ZrAl6Mo,"Al, Mo, Zr",3,0.02366922125000137,Tetragonal,123,P4/mmm,0.0,True,True,0.2155769874082111,Zr: 0.1250; Al: 0.7500; Mo: 0.1250
mp-1224791,GaNi2Pt,"Ga, Ni, Pt",3,0.0,Tetragonal,123,P4/mmm,0.0,True,True,0.17935648859185432,Ga: 0.2500; Ni: 0.5000; Pt: 0.2500
mp-644280,GaCuPt2,"Cu, Ga, Pt",3,0.0,Tetragonal,123,P4/mmm,0.0,False,True,0.21486914622625547,Ga: 0.2500; Cu: 0.2500; Pt: 0.5000
mp-1224944,GaCu4Ni15,"Cu, Ga, Ni",3,0.030587893000001642,Tetragonal,123,P4/mmm,0.0,True,True,0.02170253441421068,Ga: 0.0500; Cu: 0.2000; Ni: 0.7500
mp-1217070,Ti2RePt,"Pt, Re, Ti",3,0.0,Tetragonal,123,P4/mmm,0.0,True,True,0.3060637188560577,Ti: 0.5000; Re: 0.2500; Pt: 0.2500
mp-1221982,MgZn4Ag5,"Ag, Mg, Zn",3,0.01030432626922817,Tetragonal,123,P4/mmm,0.28140000000000054,True,False,0.19880643852752855,Mg: 0.1000; Zn: 0.4000; Ag: 0.5000
mp-1208973,Sc2Ga8Ni,"Ga, Ni, Sc",3,0.0026552854545451865,Tetragonal,123,P4/mmm,0.0,True,True,0.18010557051053588,Sc: 0.1818; Ga: 0.7273; Ni: 0.0909
mp-3702,FeCuPt2,"Cu, Fe, Pt",3,0.01835553999999817,Tetragonal,123,P4/mmm,0.0,False,True,0.20897069172494012,Fe: 0.2500; Cu: 0.2500; Pt: 0.5000
mp-1221702,MnAlRh2,"Al, Mn, Rh",3,0.030438072500000857,Tetragonal,123,P4/mmm,0.0,True,True,0.35064226784573466,Mn: 0.2500; Al: 0.2500; Rh: 0.5000
mp-1229119,Al(Ni4Pt)3,"Al, Ni, Pt",3,0.027030415000000474,Tetragonal,123,P4/mmm,0.0,True,True,0.19411479993950878,Al: 0.1667; Ni: 0.6667; Pt: 0.1667
mp-1228938,AlCuNi6,"Al, Cu, Ni",3,0.028141036250000084,Tetragonal,123,P4/mmm,0.0,True,True,0.09879745695107738,Al: 0.1250; Cu: 0.1250; Ni: 0.7500
mp-30493,ZnCdPt2,"Cd, Pt, Zn",3,0.0,Tetragonal,123,P4/mmm,0.0,False,True,0.3053276928154404,Zn: 0.2500; Cd: 0.2500; Pt: 0.5000
mp-1228972,AlCoNi6,"Al, Co, Ni",3,0.01928601062500057,Tetragonal,123,P4/mmm,0.0,True,True,0.09829006816560862,Al: 0.1250; Co: 0.1250; Ni: 0.7500
mp-1224968,FeNiPt2,"Fe, Ni, Pt",3,0.06326468250000161,Tetragonal,123,P4/mmm,0.0,True,True,0.20694202086574867,Fe: 0.2500; Ni: 0.2500; Pt: 0.5000
mp-1217017,TiAl6Mo,"Al, Mo, Ti",3,0.0,Tetragonal,123,P4/mmm,0.0,True,True,0.18661457606521525,Ti: 0.1250; Al: 0.7500; Mo: 0.1250