material_id,formula,elements,num_elements,energy_above_hull,crystal_system,spacegroup_number,spacegroup_symbol,band_gap,theoretical,is_metal
mp-1215561,Zr2VNi3,"Ni, V, Zr",3,0.07605241944444696,Trigonal,166,R-3m,0.0,True,True
mp-1223820,Hf2Al3Cu,"Al, Cu, Hf",3,0.0,Trigonal,166,R-3m,0.0,True,True
mp-641101,K34(Zn4In17)5,"In, K, Zn",3,0.008061578411015624,Trigonal,166,R-3m,0.0,False,True
mp-1215517,Zr2MnFe3,"Fe, Mn, Zr",3,0.0014092299999983737,Trigonal,166,R-3m,0.0,True,True
mp-1215491,Zr2Al3Cr,"Al, Cr, Zr",3,0.06547847083333558,Trigonal,166,R-3m,0.0,True,True
mp-1228746,Ca43Al16Pb13,"Al, Ca, Pb",3,0.0,Trigonal,166,R-3m,0.23899999999999988,True,False
mp-11430,Ca3Al7Ag2,"Ag, Al, Ca",3,0.0,Trigonal,166,R-3m,0.0,False,True
mp-12695,CaMg2Ni9,"Ca, Mg, Ni",3,0.0034315595833342982,Trigonal,166,R-3m,0.0,False,True
mp-1102168,VCo2Ni,"Co, Ni, V",3,0.0,Trigonal,166,R-3m,0.0,False,True
mp-510696,Cs4Sn2Au7,"Au, Cs, Sn",3,0.0,Trigonal,166,R-3m,0.0,False,True
mp-1222119,MgAlCu,"Al, Cu, Mg",3,0.09234838444444415,Trigonal,166,R-3m,0.0,True,True
mp-10876,Ca3Al7Cu2,"Al, Ca, Cu",3,0.0,Trigonal,166,R-3m,0.0,False,True
mp-570946,Na2Li5Sn4,"Li, Na, Sn",3,0.08938600931818153,Trigonal,166,R-3m,0.0,False,True
mp-1221827,Mn3Ni4Sn,"Mn, Ni, Sn",3,0.0332546576957613,Trigonal,166,R-3m,0.0,True,True
mp-1222143,Mg3InAg4,"Ag, In, Mg",3,0.002334178749999971,Trigonal,166,R-3m,0.0,True,True
mp-1222617,Li2ZnCu3,"Cu, Li, Zn",3,0.0,Trigonal,166,R-3m,0.0,True,True
mp-1215442,Zr2Al3Zn,"Al, Zn, Zr",3,0.0,Trigonal,166,R-3m,0.0,True,True
mp-5134,LaMg2Ni9,"La, Mg, Ni",3,0.004644421041666291,Trigonal,166,R-3m,0.0,False,True
mp-1215484,Zr2CoMo3,"Co, Mo, Zr",3,0.05672562125000091,Trigonal,166,R-3m,0.0,True,True
mp-1223215,La2MgAl3,"Al, La, Mg",3,0.010707832638888526,Trigonal,166,R-3m,0.0,True,True
mp-1221707,Mn9Al4V3,"Al, Mn, V",3,0.024989250258620643,Trigonal,166,R-3m,0.0,True,True
mp-1215528,Zr2Co3Mo,"Co, Mo, Zr",3,0.02368716041666552,Trigonal,166,R-3m,0.0,True,True
mp-568925,Ni2Sn4Au,"Au, Ni, Sn",3,0.0,Trigonal,166,R-3m,0.0,False,True
mp-1221903,Mn7Ni8Sn,"Mn, Ni, Sn",3,0.03391757627604086,Trigonal,166,R-3m,0.0,True,True
mp-1217066,Ti2Be3Ga,"Be, Ga, Ti",3,0.03679994556372623,Trigonal,166,R-3m,0.0,True,True
mp-1222087,Mn3Sn2Pd5,"Mn, Pd, Sn",3,0.011475691500000273,Trigonal,166,R-3m,0.0,True,True
mp-1095547,ZrTi2Ni9,"Ni, Ti, Zr",3,0.021075320833333855,Trigonal,166,R-3m,0.0,False,True
mp-1223828,Hf2Al3Ni,"Al, Hf, Ni",3,0.011862266111108966,Trigonal,166,R-3m,0.0,True,True
mp-1222673,Li2GaCu3,"Cu, Ga, Li",3,0.0,Trigonal,166,R-3m,0.0,True,True
mp-1217985,Ta2MnV3,"Mn, Ta, V",3,0.0,Trigonal,166,R-3m,0.0,True,True
mp-571021,K5InPb8,"In, K, Pb",3,0.0,Trigonal,166,R-3m,0.0,False,True
mp-1221708,Mn5Al2V,"Al, Mn, V",3,0.03131494051724193,Trigonal,166,R-3m,0.0,True,True
mp-1216110,Y2AlFe3,"Al, Fe, Y",3,0.017144406826924197,Trigonal,166,R-3m,0.0,True,True
mp-1216136,Y2AlCo3,"Al, Co, Y",3,0.04841851166666711,Trigonal,166,R-3m,0.0,True,True
mp-1190711,Sr2(ZnAu2)3,"Au, Sr, Zn",3,0.0,Trigonal,167,R-3c,0.0,False,True
mp-1191197,Sr2(GaAu2)3,"Au, Ga, Sr",3,0.0,Trigonal,167,R-3c,0.0,False,True
mp-1078304,Ca2AlPd2,"Al, Ca, Pd",3,0.0,Monoclinic,15,C2/c,0.0,False,True
mp-1078428,Ca2GaPt2,"Ca, Ga, Pt",3,0.0,Monoclinic,15,C2/c,0.0,False,True
mp-20393,Sr2InPt2,"In, Pt, Sr",3,0.0,Monoclinic,15,C2/c,0.0,False,True
mp-1078362,Ca2AlPt2,"Al, Ca, Pt",3,0.0,Monoclinic,15,C2/c,0.0,False,True
mp-581814,Ca21(Mn2Bi9)2,"Bi, Ca, Mn",3,0.04239299840563593,Monoclinic,15,C2/c,0.0,False,True
mp-20792,Ca2InPd2,"Ca, In, Pd",3,0.0,Monoclinic,15,C2/c,0.0,False,True
mp-20843,Sr2InPd2,"In, Pd, Sr",3,0.0,Monoclinic,15,C2/c,0.0,False,True
mp-1078280,Ca2GaPd2,"Ca, Ga, Pd",3,0.0,Monoclinic,15,C2/c,0.0,False,True
mp-1211291,Na20Zn7Sn12,"Na, Sn, Zn",3,0.0,Monoclinic,15,C2/c,0.022800000000000153,True,False
mp-1104604,Na2SrSn4,"Na, Sn, Sr",3,0.0,Monoclinic,15,C2/c,0.0,False,True
mp-680450,K2LiSn4,"K, Li, Sn",3,0.0,Monoclinic,15,C2/c,0.6936999999999998,False,False
mp-1196249,Ti11Ni9Pt4,"Ni, Pt, Ti",3,0.00854423739583332,Monoclinic,15,C2/c,0.0,True,True
mp-21885,Ca2InPt2,"Ca, In, Pt",3,0.0,Monoclinic,15,C2/c,0.0,False,True
mp-571626,Mg3Ga7Co2,"Co, Ga, Mg",3,0.0,Monoclinic,15,C2/c,0.0,False,True
mp-1222193,Mg4CuNi,"Cu, Mg, Ni",3,0.0,Hexagonal,180,P6_222,0.0,True,True
mp-1208338,TiMnSn4,"Mn, Sn, Ti",3,0.026144843819445818,Hexagonal,180,P6_222,0.0,True,True
mp-1220866,NaSn2Pd3,"Na, Pd, Sn",3,0.0,Hexagonal,183,P6mm,0.0,True,True
mp-1202432,K3Mg18Pb11,"K, Mg, Pb",3,0.00249030843749809,Hexagonal,176,P6_3/m,0.0,False,True
mp-1204087,K3Mg18Sn11,"K, Mg, Sn",3,0.008862562395832718,Hexagonal,176,P6_3/m,0.0,False,True
mp-1212154,La23Cd4Ir7,"Cd, Ir, La",3,0.0,Hexagonal,186,P6_3mc,0.0,True,True
mp-1211976,La23Mg4Ir7,"Ir, La, Mg",3,0.0,Hexagonal,186,P6_3mc,0.0,True,True
mp-1019104,CaSnHg,"Ca, Hg, Sn",3,0.0,Hexagonal,186,P6_3mc,0.0,False,True
mp-1192970,Y8In3Co,"Co, In, Y",3,0.0,Hexagonal,186,P6_3mc,0.010799999999999699,False,False
mp-570297,La23Mg4Rh7,"La, Mg, Rh",3,0.0,Hexagonal,186,P6_3mc,0.0,False,True
mp-20865,YCuPb,"Cu, Pb, Y",3,0.0,Hexagonal,186,P6_3mc,0.0,False,True
mp-13203,ScCuSn,"Cu, Sc, Sn",3,0.0,Hexagonal,186,P6_3mc,0.0,True,True
mp-13202,YCuSn,"Cu, Sn, Y",3,0.0,Hexagonal,186,P6_3mc,0.0,True,True
mp-1096880,CaZnPb,"Ca, Pb, Zn",3,0.0004543849999980587,Hexagonal,186,P6_3mc,0.0,True,True
mp-19983,TiCuSn,"Cu, Sn, Ti",3,0.010317087604160946,Hexagonal,186,P6_3mc,0.0,False,True
mp-1018713,HfCuSn,"Cu, Hf, Sn",3,0.0,Hexagonal,186,P6_3mc,0.0,False,True
mp-13406,LaAgPb,"Ag, La, Pb",3,0.0,Hexagonal,186,P6_3mc,0.0,False,True
mp-1071260,LaSnAu,"Au, La, Sn",3,0.0,Hexagonal,186,P6_3mc,0.0,False,True
mp-31160,CaZnSn,"Ca, Sn, Zn",3,0.0,Hexagonal,186,P6_3mc,0.0,False,True
mp-1212070,La23Cd4Rh7,"Cd, La, Rh",3,0.0,Hexagonal,186,P6_3mc,0.0,True,True
mp-567446,La23Cd4Pt7,"Cd, La, Pt",3,0.00020547941176740636,Hexagonal,186,P6_3mc,0.0,False,True
mp-1025128,LaCuPb,"Cu, La, Pb",3,0.0,Hexagonal,186,P6_3mc,0.0,True,True
mp-1019277,SrHgPb,"Hg, Pb, Sr",3,0.0,Hexagonal,186,P6_3mc,0.0,False,True
mp-1212033,La23Mg4Pt7,"La, Mg, Pt",3,0.0,Hexagonal,186,P6_3mc,0.0,True,True
mp-1192625,Sr3(Cu2Sn)4,"Cu, Sn, Sr",3,0.032248582666667414,Hexagonal,186,P6_3mc,0.0,False,True
mp-21677,Ca3(InNi2)4,"Ca, In, Ni",3,0.0,Hexagonal,186,P6_3mc,0.0,False,True
mp-581781,La23Mg4Ni7,"La, Mg, Ni",3,0.0,Hexagonal,186,P6_3mc,0.0,False,True
mp-504790,LiYSn,"Li, Sn, Y",3,0.0,Hexagonal,186,P6_3mc,0.0,True,True
mp-6919,ScSnAu,"Au, Sc, Sn",3,0.06907755499999979,Hexagonal,186,P6_3mc,0.0,True,True
mp-1213625,La23Cd4Ni7,"Cd, La, Ni",3,0.0,Hexagonal,186,P6_3mc,0.0,True,True
mp-1102046,MnInCu4,"Cu, In, Mn",3,0.05190865978927306,Hexagonal,186,P6_3mc,0.0,False,True
mp-570710,Ca3(Cu2Sn)4,"Ca, Cu, Sn",3,0.0,Hexagonal,186,P6_3mc,0.0,False,True
mp-568664,CaAgBi,"Ag, Bi, Ca",3,0.0,Hexagonal,186,P6_3mc,0.0,False,True
mp-567197,YSnAu,"Au, Sn, Y",3,0.0,Hexagonal,186,P6_3mc,0.0,False,True
mp-1018657,CaBiAu,"Au, Bi, Ca",3,0.047790710000003234,Hexagonal,186,P6_3mc,0.0,False,True
mp-1019259,SrSnHg,"Hg, Sn, Sr",3,0.0,Hexagonal,186,P6_3mc,0.0,False,True
mp-5729,YAgSn,"Ag, Sn, Y",3,0.0,Hexagonal,186,P6_3mc,0.0,False,True
mp-31301,LiSn4Au3,"Au, Li, Sn",3,0.0,Hexagonal,186,P6_3mc,0.0,False,True
mp-22379,Y3(Co2Sn)4,"Co, Sn, Y",3,0.021100312999996262,Hexagonal,186,P6_3mc,0.0,False,True
mp-1026423,Mg14GaBi,"Bi, Ga, Mg",3,0.04807171265624954,Hexagonal,187,P-6m2,0.0,True,True
mp-1027950,YMg14Ga,"Ga, Mg, Y",3,0.09872407739583355,Hexagonal,187,P-6m2,0.0,True,True
mp-1222082,Mg6CdIn,"Cd, In, Mg",3,0.008000766249999014,Hexagonal,187,P-6m2,0.0,True,True
mp-1028087,YMg14Cu,"Cu, Mg, Y",3,0.08753971737500033,Hexagonal,187,P-6m2,0.0,True,True
mp-568967,Ba5Ga5Sn,"Ba, Ga, Sn",3,0.0,Hexagonal,187,P-6m2,0.0,False,True
mp-2479693,LiCaSn,"Ca, Li, Sn",3,0.00020515333333426256,Hexagonal,187,P-6m2,0.0,True,True
mp-1026790,LiMg14Bi,"Bi, Li, Mg",3,0.08528092718749991,Hexagonal,187,P-6m2,0.0,True,True
mp-1026496,Mg14CrCd,"Cd, Cr, Mg",3,0.09419724843750021,Hexagonal,187,P-6m2,0.0,True,True
mp-1026818,SrLiMg14,"Li, Mg, Sr",3,0.09111893687499983,Hexagonal,187,P-6m2,0.0,True,True
mp-568168,Rb(In3Au2)2,"Au, In, Rb",3,0.0,Hexagonal,187,P-6m2,0.0,False,True
mp-1026441,Mg14CdBi,"Bi, Cd, Mg",3,0.03964606265624959,Hexagonal,187,P-6m2,0.0,True,True
mp-1225049,K18Na46Tl31,"K, Na, Tl",3,0.0,Hexagonal,187,P-6m2,0.0,True,True
mp-1222930,LaAlCo4,"Al, Co, La",3,0.0770598822826063,Hexagonal,187,P-6m2,0.0,True,True
mp-1028190,CaMg14Al,"Al, Ca, Mg",3,0.07715127109375008,Hexagonal,187,P-6m2,0.0,True,True
mp-1028381,LiMg14Ni,"Li, Mg, Ni",3,0.08339407333333337,Hexagonal,187,P-6m2,0.0,True,True
mp-1218356,SrAlGa,"Al, Ga, Sr",3,0.0,Hexagonal,187,P-6m2,0.0,True,True
mp-1028028,YMg14Sn,"Mg, Sn, Y",3,0.09152008661931799,Hexagonal,187,P-6m2,0.0,True,True
mp-1028164,CaMg14Zr,"Ca, Mg, Zr",3,0.08008729093750011,Hexagonal,187,P-6m2,0.0,True,True
mp-570807,Sr4In13Au9,"Au, In, Sr",3,0.0,Hexagonal,187,P-6m2,0.0,False,True
mp-1028338,Mg14GaNi,"Ga, Mg, Ni",3,0.07914495062500038,Hexagonal,187,P-6m2,0.0,True,True
mp-1028265,LiMg14Sn,"Li, Mg, Sn",3,0.05141712921874997,Hexagonal,187,P-6m2,0.0,True,True
mp-1217583,Ti2VNi9,"Ni, Ti, V",3,0.023292617500000112,Hexagonal,187,P-6m2,0.0,True,True
mp-1227950,BaAlSn,"Al, Ba, Sn",3,0.026085831875002796,Hexagonal,187,P-6m2,0.0,True,True
mp-1217832,TaTiNi6,"Ni, Ta, Ti",3,0.010734950000001575,Hexagonal,187,P-6m2,0.0,True,True
mp-1028035,LaYMg14,"La, Mg, Y",3,0.08354762875000077,Hexagonal,187,P-6m2,0.0,True,True
mp-1028081,YMg14Zn,"Mg, Y, Zn",3,0.07323832302083355,Hexagonal,187,P-6m2,0.0,True,True
mp-1217983,TaCo6Mo,"Co, Mo, Ta",3,0.014388695208333857,Hexagonal,187,P-6m2,0.0,True,True
mp-1222791,LaZnNi4,"La, Ni, Zn",3,0.0,Hexagonal,187,P-6m2,0.0,True,True
mp-1026857,NaMg14Cu,"Cu, Mg, Na",3,0.08826056105071878,Hexagonal,187,P-6m2,0.0,True,True
mp-20998,LiCaPb,"Ca, Li, Pb",3,0.0,Hexagonal,187,P-6m2,0.0,False,True
mp-1026397,Mg14NbSn,"Mg, Nb, Sn",3,0.0932665591666666,Hexagonal,187,P-6m2,0.0,True,True
mp-1028177,LiCaMg14,"Ca, Li, Mg",3,0.06011858593749975,Hexagonal,187,P-6m2,0.0,True,True
mp-605650,Ba5Ga5Pb,"Ba, Ga, Pb",3,0.0,Hexagonal,187,P-6m2,0.0,False,True
mp-1027966,Mg14ZrZn,"Mg, Zn, Zr",3,0.07167823125000039,Hexagonal,187,P-6m2,0.0,True,True
mp-1027982,Mg14ZnSn,"Mg, Sn, Zn",3,0.035315535600000114,Hexagonal,187,P-6m2,0.0,True,True
mp-1217197,Ti3AlNi12,"Al, Ni, Ti",3,0.005218928437499493,Hexagonal,187,P-6m2,0.0,True,True
mp-1218855,Sr2AlGa3,"Al, Ga, Sr",3,0.001553554999999207,Hexagonal,187,P-6m2,0.0,True,True
mp-1028071,Mg14MnBi,"Bi, Mg, Mn",3,0.09187164747305987,Hexagonal,187,P-6m2,0.0,True,True
mp-1222733,LaZn4Ni,"La, Ni, Zn",3,0.001105012583334286,Hexagonal,187,P-6m2,0.0,True,True
mp-1026776,LiMg14Ga,"Ga, Li, Mg",3,0.041185260187499795,Hexagonal,187,P-6m2,0.0,True,True
mp-1026839,NaLiMg14,"Li, Mg, Na",3,0.057023123653017205,Hexagonal,187,P-6m2,0.0,True,True
mp-1206734,LiInPt,"In, Li, Pt",3,0.03249917777777611,Hexagonal,187,P-6m2,0.0,True,True
mp-1027718,LiMg14Co,"Co, Li, Mg",3,0.09657993114583352,Hexagonal,187,P-6m2,0.0,True,True
mp-1026769,LiHfMg14,"Hf, Li, Mg",3,0.08006977874999999,Hexagonal,187,P-6m2,0.0,True,True
mp-1028180,CaLaMg14,"Ca, La, Mg",3,0.08249372249999998,Hexagonal,187,P-6m2,0.0,True,True
mp-1028331,Mg14CdNi,"Cd, Mg, Ni",3,0.07195187239583323,Hexagonal,187,P-6m2,0.0,True,True
mp-568809,Ba5Al5Pb,"Al, Ba, Pb",3,0.0,Hexagonal,187,P-6m2,0.0,False,True
mp-1222879,LaMnNi4,"La, Mn, Ni",3,0.03347835617816486,Hexagonal,187,P-6m2,0.0,True,True
mp-1028037,NaYMg14,"Mg, Na, Y",3,0.06644230522629324,Hexagonal,187,P-6m2,0.0,True,True
mp-1215961,YFeNi4,"Fe, Ni, Y",3,0.05261772791666708,Hexagonal,187,P-6m2,0.0,True,True
mp-1028325,Mg14NiBi,"Bi, Mg, Ni",3,0.08804571067708311,Hexagonal,187,P-6m2,0.0,True,True
mp-1026584,Mg14CdSn,"Cd, Mg, Sn",3,0.02585633593749992,Hexagonal,187,P-6m2,0.0,True,True
mp-1026555,SrMg14Cd,"Cd, Mg, Sr",3,0.09305279750000017,Hexagonal,187,P-6m2,0.0,True,True
mp-1026652,NaMg14Ga,"Ga, Mg, Na",3,0.061918014601293425,Hexagonal,187,P-6m2,0.0,True,True
mp-1028092,LiMg14Mn,"Li, Mg, Mn",3,0.08780831950431045,Hexagonal,187,P-6m2,0.0,True,True
mp-1026512,Mg14NbCd,"Cd, Mg, Nb",3,0.08936350843750018,Hexagonal,187,P-6m2,0.0,True,True
mp-1028208,LiMg14Al,"Al, Li, Mg",3,0.042839436250000196,Hexagonal,187,P-6m2,0.0,True,True
mp-1028236,Mg14AlBi,"Al, Bi, Mg",3,0.048194209661458265,Hexagonal,187,P-6m2,0.0,True,True
mp-1218026,Ta4(Pd3Rh)3,"Pd, Rh, Ta",3,0.013606973749997309,Hexagonal,187,P-6m2,0.0,True,True
mp-1028222,Mg14AlGa,"Al, Ga, Mg",3,0.02747606138020875,Hexagonal,187,P-6m2,0.0,True,True
mp-1027998,Mg14ZnCu,"Cu, Mg, Zn",3,0.07385922312500015,Hexagonal,187,P-6m2,0.0,True,True
mp-1028198,YMg14Al,"Al, Mg, Y",3,0.08659638489583399,Hexagonal,187,P-6m2,0.0,True,True
mp-1027823,LiMg14Cu,"Cu, Li, Mg",3,0.058517962552083524,Hexagonal,187,P-6m2,0.0,True,True
mp-1222960,LaCuNi4,"Cu, La, Ni",3,0.0,Hexagonal,187,P-6m2,0.0,True,True
mp-1027841,Mg14ZrCd,"Cd, Mg, Zr",3,0.043052083593750234,Hexagonal,187,P-6m2,0.0,True,True
mp-1028122,CaMg14Cd,"Ca, Cd, Mg",3,0.0633269993750003,Hexagonal,187,P-6m2,0.0,True,True
mp-1028183,NaCaMg14,"Ca, Mg, Na",3,0.07595992772629323,Hexagonal,187,P-6m2,0.0,True,True
mp-1026643,HfMg14Sn,"Hf, Mg, Sn",3,0.08929121325000144,Hexagonal,187,P-6m2,0.0,True,True
mp-1026633,LiMg14Ti,"Li, Mg, Ti",3,0.08394288354166668,Hexagonal,187,P-6m2,0.0,True,True
mp-11743,LiYGa4,"Ga, Li, Y",3,0.0,Hexagonal,187,P-6m2,0.0,False,True
mp-567545,K(In3Au2)2,"Au, In, K",3,0.0,Hexagonal,187,P-6m2,0.0,False,True
mp-1026440,HfMg14Cd,"Cd, Hf, Mg",3,0.0647845334374999,Hexagonal,187,P-6m2,0.0,True,True
mp-1026895,Mg14CuBi,"Bi, Cu, Mg",3,0.07066620562499981,Hexagonal,187,P-6m2,0.0,True,True
mp-1205978,CaAgPb,"Ag, Ca, Pb",3,0.0,Hexagonal,187,P-6m2,0.0,True,True
mp-1027960,NaMg14Zn,"Mg, Na, Zn",3,0.06887423988879338,Hexagonal,187,P-6m2,0.0,True,True
mp-1026781,NaLaMg14,"La, Mg, Na",3,0.09185754460129325,Hexagonal,187,P-6m2,0.0,True,True
mp-1026579,Mg14GaSn,"Ga, Mg, Sn",3,0.03034032843750012,Hexagonal,187,P-6m2,0.0,True,True
mp-1027888,Mg14ZnCd,"Cd, Mg, Zn",3,0.03564918028750008,Hexagonal,187,P-6m2,0.0,True,True
mp-12951,ZrGaAu,"Au, Ga, Zr",3,0.0,Hexagonal,187,P-6m2,0.0,False,True
mp-1028199,Mg14AlZn,"Al, Mg, Zn",3,0.038362542292708524,Hexagonal,187,P-6m2,0.0,True,True
mp-1028063,Mg14MnGa,"Ga, Mg, Mn",3,0.08120961231681045,Hexagonal,187,P-6m2,0.0,True,True
mp-1222931,LaFeNi4,"Fe, La, Ni",3,0.051083539166669745,Hexagonal,187,P-6m2,0.0,True,True
mp-1028260,NaMg14Sn,"Mg, Na, Sn",3,0.06865566937500023,Hexagonal,187,P-6m2,0.0,True,True
mp-1027816,Mg14CuSn,"Cu, Mg, Sn",3,0.060884638281250014,Hexagonal,187,P-6m2,0.0,True,True
mp-1027979,Mg14ZnNi,"Mg, Ni, Zn",3,0.08178744018333362,Hexagonal,187,P-6m2,0.0,True,True
mp-1028085,YMg14Zr,"Mg, Y, Zr",3,0.0806381953124995,Hexagonal,187,P-6m2,0.0,True,True
mp-1027918,Mg14ZrSn,"Mg, Sn, Zr",3,0.08466416300000024,Hexagonal,187,P-6m2,0.0,True,True
mp-1028218,NaMg14Al,"Al, Mg, Na",3,0.05989851910650179,Hexagonal,187,P-6m2,0.0,True,True
mp-1026492,Mg14CrGa,"Cr, Ga, Mg",3,0.09951473468749983,Hexagonal,187,P-6m2,0.0,True,True
mp-12952,HfGaAu,"Au, Ga, Hf",3,0.0,Hexagonal,187,P-6m2,0.0,False,True
mp-1215968,YBeCu4,"Be, Cu, Y",3,0.0416600306837589,Hexagonal,187,P-6m2,0.0,True,True
mp-1028124,CaMg14Ga,"Ca, Ga, Mg",3,0.0764788862500001,Hexagonal,187,P-6m2,0.0,True,True
mp-1028156,CaYMg14,"Ca, Mg, Y",3,0.06254521812499969,Hexagonal,187,P-6m2,0.0,True,True
mp-1028024,YMg14Cd,"Cd, Mg, Y",3,0.053710296875000285,Hexagonal,187,P-6m2,0.0,True,True
mp-1026402,HfMg14Bi,"Bi, Hf, Mg",3,0.07815572921875003,Hexagonal,187,P-6m2,0.0,True,True
mp-1028049,SrYMg14,"Mg, Sr, Y",3,0.08797006906249982,Hexagonal,187,P-6m2,0.0,True,True
mp-1027904,HfMg14Zn,"Hf, Mg, Zn",3,0.08560688085937462,Hexagonal,187,P-6m2,0.0,True,True
mp-1222921,LaAlCu4,"Al, Cu, La",3,0.06620251666666555,Hexagonal,187,P-6m2,0.0,True,True
mp-1222076,Mn4Ga3Cu2,"Cu, Ga, Mn",3,0.09171032612388252,Hexagonal,187,P-6m2,0.0,True,True
mp-1227397,BiPt2Pb,"Bi, Pb, Pt",3,0.0,Hexagonal,187,P-6m2,0.0,True,True
mp-1026392,Mg14TiBi,"Bi, Mg, Ti",3,0.08372775213541628,Hexagonal,187,P-6m2,0.0,True,True
mp-1099087,Mg14CoSn,"Co, Mg, Sn",3,0.09877582906249982,Hexagonal,187,P-6m2,0.0,True,True
mp-1227033,CaSnHg,"Ca, Hg, Sn",3,0.0768961983333365,Hexagonal,187,P-6m2,0.0,True,True
mp-1028362,Mg14NiSn,"Mg, Ni, Sn",3,0.07762738458333329,Hexagonal,187,P-6m2,0.0,True,True
mp-1027955,LiMg14Zn,"Li, Mg, Zn",3,0.04807423312500014,Hexagonal,187,P-6m2,0.0,True,True
mp-1026799,LiMg14Cd,"Cd, Li, Mg",3,0.04017056500000016,Hexagonal,187,P-6m2,0.0,True,True
mp-1028221,Mg14AlCd,"Al, Cd, Mg",3,0.027533483880208598,Hexagonal,187,P-6m2,0.0,True,True
mp-1222941,LaGaNi4,"Ga, La, Ni",3,0.0,Hexagonal,187,P-6m2,0.0,True,True
mp-1026837,LiLaMg14,"La, Li, Mg",3,0.07914272406250022,Hexagonal,187,P-6m2,0.0,True,True
mp-1215955,YAlCo4,"Al, Co, Y",3,0.050559095384617336,Hexagonal,187,P-6m2,0.0,True,True
mp-1027958,LaMg14Zn,"La, Mg, Zn",3,0.09601586500000026,Hexagonal,187,P-6m2,0.0,True,True
mp-1028133,Mg14MnZn,"Mg, Mn, Zn",3,0.0875172357293108,Hexagonal,187,P-6m2,0.0,True,True
mp-1027929,LiMg14Zr,"Li, Mg, Zr",3,0.055241549375000254,Hexagonal,187,P-6m2,0.0,True,True
mp-1027906,Mg14ZnBi,"Bi, Mg, Zn",3,0.04995375856874995,Hexagonal,187,P-6m2,0.0,True,True
mp-1028255,Mg14AlSn,"Al, Mg, Sn",3,0.030474892942708554,Hexagonal,187,P-6m2,0.0,True,True
mp-1222982,LaAlNi4,"Al, La, Ni",3,0.04864910666666589,Hexagonal,187,P-6m2,0.0,True,True
mp-1026877,Mg14CdCu,"Cd, Cu, Mg",3,0.05756696359375013,Hexagonal,187,P-6m2,0.0,True,True
mp-1027917,Mg14ZrCu,"Cu, Mg, Zr",3,0.08083525570312489,Hexagonal,187,P-6m2,0.0,True,True
mp-1028244,Mg14AlCu,"Al, Cu, Mg",3,0.0790135007291668,Hexagonal,187,P-6m2,0.0,True,True
mp-1027951,Mg14TiZn,"Mg, Ti, Zn",3,0.08866264187500028,Hexagonal,187,P-6m2,0.0,True,True
mp-1026740,LaMg14Cd,"Cd, La, Mg",3,0.08147128093750022,Hexagonal,187,P-6m2,0.0,True,True
mp-1026884,Mg14GaCu,"Cu, Ga, Mg",3,0.0620355948437501,Hexagonal,187,P-6m2,0.0,True,True
mp-1225481,LaCuSn,"Cu, La, Sn",3,0.043258524999999715,Hexagonal,187,P-6m2,0.0,True,True
mp-1028165,CaMg14Cu,"Ca, Cu, Mg",3,0.09092469171874984,Hexagonal,187,P-6m2,0.0,True,True
mp-1028158,CaMg14Zn,"Ca, Mg, Zn",3,0.06990905843749973,Hexagonal,187,P-6m2,0.0,True,True
mp-1027839,NaMg14Zr,"Mg, Na, Zr",3,0.07796122678879347,Hexagonal,187,P-6m2,0.0,True,True
mp-1028393,Mg14CdCo,"Cd, Co, Mg",3,0.08813185562500014,Hexagonal,187,P-6m2,0.0,True,True
mp-1027854,Mg14ZrGa,"Ga, Mg, Zr",3,0.09916758062500053,Hexagonal,187,P-6m2,0.0,True,True
mp-570677,Ba5Al5Sn,"Al, Ba, Sn",3,0.0,Hexagonal,187,P-6m2,0.0,False,True
mp-1028045,LiYMg14,"Li, Mg, Y",3,0.05013623781249987,Hexagonal,187,P-6m2,0.0,True,True
mp-1027893,Mg14ZnGa,"Ga, Mg, Zn",3,0.03858427841250034,Hexagonal,187,P-6m2,0.0,True,True
mp-1028272,Mg14TiSn,"Mg, Sn, Ti",3,0.08904992447916715,Hexagonal,187,P-6m2,0.0,True,True
mp-1026649,NaMg14Bi,"Bi, Mg, Na",3,0.09399848645833364,Hexagonal,187,P-6m2,0.0,True,True
mp-1027870,Mg14ZrBi,"Bi, Mg, Zr",3,0.06994014010416727,Hexagonal,187,P-6m2,0.0,True,True
mp-1026447,Mg14CdGa,"Cd, Ga, Mg",3,0.028425486875000017,Hexagonal,187,P-6m2,0.0,True,True
mp-1028146,Mg14MnSn,"Mg, Mn, Sn",3,0.08085986700431036,Hexagonal,187,P-6m2,0.0,True,True
mp-1217555,Ti2NbNi9,"Nb, Ni, Ti",3,0.02882490208333177,Hexagonal,187,P-6m2,0.0,True,True
mp-1027997,SrMg14Zn,"Mg, Sr, Zn",3,0.09797638421875021,Hexagonal,187,P-6m2,0.0,True,True
mp-1028189,SrCaMg14,"Ca, Mg, Sr",3,0.09151506906249995,Hexagonal,187,P-6m2,0.0,True,True
mp-1026625,Mg14SnBi,"Bi, Mg, Sn",3,0.05220966984374953,Hexagonal,187,P-6m2,0.0,True,True
mp-1026646,NaMg14Cd,"Cd, Mg, Na",3,0.05586108835129311,Hexagonal,187,P-6m2,0.0,True,True
mp-1026393,Mg14TiCd,"Cd, Mg, Ti",3,0.06871928010416672,Hexagonal,187,P-6m2,0.0,True,True
mp-1226957,Cd3InAu12,"Au, Cd, In",3,0.00475869090904979,Hexagonal,187,P-6m2,0.0,True,True
mp-1078813,YZnPd,"Pd, Y, Zn",3,0.014596910833334142,Hexagonal,189,P-62m,0.0,False,True
mp-1080518,HfSnRh,"Hf, Rh, Sn",3,0.015258350000007859,Hexagonal,189,P-62m,0.0,False,True
mp-1205897,Zr6FeBi2,"Bi, Fe, Zr",3,0.0,Hexagonal,189,P-62m,0.0,True,True
mp-1206944,LaMgCu,"Cu, La, Mg",3,0.0,Hexagonal,189,P-62m,0.0,True,True