material_id,formula,elements,num_elements,energy_above_hull,crystal_system,spacegroup_number,spacegroup_symbol,band_gap,theoretical,is_metal,electronegativity_difference,atomic_concentrations
mp-1224182,HfTiW4,"Hf, Ti, W",3,0.02840385333333728,Cubic,216,F-43m,0.0,True,True,0.4485036851081109,Hf: 0.1667; Ti: 0.1667; W: 0.6667
mp-1227279,Be4AlNi,"Al, Be, Ni",3,0.0,Cubic,216,F-43m,0.0,True,True,0.12458821060687165,Be: 0.6667; Al: 0.1667; Ni: 0.1667
mp-1227272,Be4AlFe,"Al, Be, Fe",3,0.0,Cubic,216,F-43m,0.0,True,True,0.0950438495292217,Be: 0.6667; Al: 0.1667; Fe: 0.1667
mp-1222600,Li2ZnSn,"Li, Sn, Zn",3,0.0,Cubic,216,F-43m,0.0,True,True,0.4268123123809809,Li: 0.5000; Zn: 0.2500; Sn: 0.2500
mp-30820,Li2AlRh,"Al, Li, Rh",3,0.05371851833333352,Cubic,216,F-43m,0.0,False,True,0.5375116277812043,Li: 0.5000; Al: 0.2500; Rh: 0.2500
mp-3726,Li2GaPt,"Ga, Li, Pt",3,0.0,Cubic,216,F-43m,0.0,False,True,0.5578250173665573,Li: 0.5000; Ga: 0.2500; Pt: 0.2500
mp-1221620,MnAlFe2,"Al, Fe, Mn",3,0.056904699999999586,Cubic,216,F-43m,0.0,True,True,0.12678722333105966,Mn: 0.2500; Al: 0.2500; Fe: 0.5000
mp-1071645,YInCu4,"Cu, In, Y",3,0.0,Cubic,216,F-43m,0.0,False,True,0.24837248013596208,Y: 0.1667; In: 0.1667; Cu: 0.6667
mp-1222695,LaYMg4,"La, Mg, Y",3,0.022448269999999937,Cubic,216,F-43m,0.0,True,True,0.0787400787401181,La: 0.1667; Y: 0.1667; Mg: 0.6667
mp-568466,LiInSn,"In, Li, Sn",3,0.03752031777777898,Cubic,216,F-43m,0.0,False,True,0.4259368758656876,Li: 0.3333; In: 0.3333; Sn: 0.3333
mp-1213974,CaBiAu4,"Au, Bi, Ca",3,0.0,Cubic,216,F-43m,0.0,True,True,0.5678517020803544,Ca: 0.1667; Bi: 0.1667; Au: 0.6667
mp-570213,LiMgBi,"Bi, Li, Mg",3,0.0,Cubic,216,F-43m,0.35870000000000024,False,False,0.43392267616349445,Li: 0.3333; Mg: 0.3333; Bi: 0.3333
mp-1224275,HfTaV4,"Hf, Ta, V",3,0.027264051666666234,Cubic,216,F-43m,0.0,True,True,0.12283683848458847,Hf: 0.1667; Ta: 0.1667; V: 0.6667
mp-1077397,ScCdNi4,"Cd, Ni, Sc",3,0.0,Cubic,216,F-43m,0.0,False,True,0.20497289793748064,Sc: 0.1667; Cd: 0.1667; Ni: 0.6667
mp-605878,La4MgRu,"La, Mg, Ru",3,0.0,Cubic,216,F-43m,0.0,False,True,0.40168049768718206,La: 0.6667; Mg: 0.1667; Ru: 0.1667
mp-1207825,Y4MgNi,"Mg, Ni, Y",3,0.0,Cubic,216,F-43m,0.030100000000000016,True,False,0.25258661880630173,Y: 0.6667; Mg: 0.1667; Ni: 0.1667
mp-31441,Li2GaIr,"Ga, Ir, Li",3,0.0,Cubic,216,F-43m,0.0,False,True,0.5307247403315584,Li: 0.5000; Ga: 0.2500; Ir: 0.2500
mp-1206679,YBiPt,"Bi, Pt, Y",3,0.0,Cubic,216,F-43m,0.0,True,True,0.45107279530766053,Y: 0.3333; Bi: 0.3333; Pt: 0.3333
mp-1207794,Y4CdNi,"Cd, Ni, Y",3,0.0,Cubic,216,F-43m,0.013399999999999856,True,False,0.28069358540744904,Y: 0.6667; Cd: 0.1667; Ni: 0.1667
mp-1222613,Li2MgTl,"Li, Mg, Tl",3,0.0,Cubic,216,F-43m,0.0,True,True,0.2661179249881526,Li: 0.5000; Mg: 0.2500; Tl: 0.2500
mp-1224259,HfTiMo4,"Hf, Mo, Ti",3,0.07222330037037139,Cubic,216,F-43m,0.0,True,True,0.35565276448931044,Hf: 0.1667; Ti: 0.1667; Mo: 0.6667
mp-1227275,Be4AlCu,"Al, Be, Cu",3,0.010284149166666978,Cubic,216,F-43m,0.0,True,True,0.1208879187052572,Be: 0.6667; Al: 0.1667; Cu: 0.1667
mp-1222280,LiInSn,"In, Li, Sn",3,0.008003621111112746,Cubic,216,F-43m,0.20199999999999996,True,False,0.4259368758656876,Li: 0.3333; In: 0.3333; Sn: 0.3333
mp-1215186,ZrTiCo4,"Co, Ti, Zr",3,0.06405080196078217,Cubic,216,F-43m,0.0,True,True,0.2183587771433874,Zr: 0.1667; Ti: 0.1667; Co: 0.6667
mp-1222650,Li2MgAu,"Au, Li, Mg",3,0.0029623250000012646,Cubic,216,F-43m,0.0,True,True,0.6421594428177476,Li: 0.5000; Mg: 0.2500; Au: 0.2500
mp-1218345,SrCaAl4,"Al, Ca, Sr",3,0.016013822499997943,Cubic,216,F-43m,0.0,True,True,0.2996896542907161,Sr: 0.1667; Ca: 0.1667; Al: 0.6667
mp-1207807,Y4MgRh,"Mg, Rh, Y",3,0.0,Cubic,216,F-43m,0.0,True,True,0.3897185594189164,Y: 0.6667; Mg: 0.1667; Rh: 0.1667
mp-1222607,Li2SnPt,"Li, Pt, Sn",3,0.0,Cubic,216,F-43m,0.0,True,True,0.5811196090307054,Li: 0.5000; Sn: 0.2500; Pt: 0.2500
mp-1222647,Li2MgGa,"Ga, Li, Mg",3,0.0,Cubic,216,F-43m,0.0,True,True,0.3396321539548339,Li: 0.5000; Mg: 0.2500; Ga: 0.2500
mp-13079,Mn2AlCo,"Al, Co, Mn",3,0.02683310853448262,Cubic,216,F-43m,0.0,False,True,0.13645054048995184,Mn: 0.5000; Al: 0.2500; Co: 0.2500
mp-1207818,Y4CdPd,"Cd, Pd, Y",3,0.0,Cubic,216,F-43m,0.0,True,True,0.37212975634253653,Y: 0.6667; Cd: 0.1667; Pd: 0.1667
mp-961687,ZrSnPd,"Pd, Sn, Zr",3,0.0,Cubic,216,F-43m,0.48160000000000025,True,False,0.3668787265568828,Zr: 0.3333; Sn: 0.3333; Pd: 0.3333
mp-1207813,Y4CdPt,"Cd, Pt, Y",3,0.0,Cubic,216,F-43m,0.0,True,True,0.3988211796448795,Y: 0.6667; Cd: 0.1667; Pt: 0.1667
mp-1227048,CaLaAl4,"Al, Ca, La",3,0.02261050500000117,Cubic,216,F-43m,0.0,True,True,0.26556020451532686,Ca: 0.1667; La: 0.1667; Al: 0.6667
mp-30403,Li2PbAu,"Au, Li, Pb",3,0.0042674800000011,Cubic,216,F-43m,0.0,False,True,0.731278845584911,Li: 0.5000; Pb: 0.2500; Au: 0.2500
mp-1224085,HfZrV4,"Hf, V, Zr",3,0.04102840833333232,Cubic,216,F-43m,0.0,True,True,0.1487447478064351,Hf: 0.1667; Zr: 0.1667; V: 0.6667
mp-961693,ZrInAu,"Au, In, Zr",3,0.0,Cubic,216,F-43m,0.44120000000000026,True,False,0.4993551397107629,Zr: 0.3333; In: 0.3333; Au: 0.3333
mp-924129,ZrNiSn,"Ni, Sn, Zr",3,0.0,Cubic,216,F-43m,0.49540000000000006,True,False,0.28592928418676444,Zr: 0.3333; Ni: 0.3333; Sn: 0.3333
mp-1207094,MgCuPb,"Cu, Mg, Pb",3,0.06587151333333319,Cubic,216,F-43m,0.0,True,True,0.4181174741890396,Mg: 0.3333; Cu: 0.3333; Pb: 0.3333
mp-567076,Li2BiAu,"Au, Bi, Li",3,0.018676827500000215,Cubic,216,F-43m,0.0,False,True,0.6754998149518622,Li: 0.5000; Bi: 0.2500; Au: 0.2500
mp-570769,CaInCu4,"Ca, Cu, In",3,0.02046913583333243,Cubic,216,F-43m,0.0,False,True,0.32939338184001205,Ca: 0.1667; In: 0.1667; Cu: 0.6667
mp-1211476,La4MgRh,"La, Mg, Rh",3,0.0,Cubic,216,F-43m,0.0,True,True,0.43098401620271504,La: 0.6667; Mg: 0.1667; Rh: 0.1667
mp-1222604,Li2TlCd,"Cd, Li, Tl",3,0.0017011562500002242,Cubic,216,F-43m,0.0,True,True,0.33840619084171614,Li: 0.5000; Tl: 0.2500; Cd: 0.2500
mp-1222012,MgBe4Cu,"Be, Cu, Mg",3,0.05153199750000059,Cubic,216,F-43m,0.0,True,True,0.171115620431203,Mg: 0.1667; Be: 0.6667; Cu: 0.1667
mp-1215942,YScFe4,"Fe, Sc, Y",3,0.0181996024999993,Cubic,216,F-43m,0.0,True,True,0.2577466456296441,Y: 0.1667; Sc: 0.1667; Fe: 0.6667
mp-1221618,MnBe4Al,"Al, Be, Mn",3,0.0,Cubic,216,F-43m,0.0,True,True,0.01795054935711503,Mn: 0.1667; Be: 0.6667; Al: 0.1667
mp-30587,MgInCu4,"Cu, In, Mg",3,0.0,Cubic,216,F-43m,0.0,False,True,0.21543882864722613,Mg: 0.1667; In: 0.1667; Cu: 0.6667
mp-961682,TiSnPd,"Pd, Sn, Ti",3,0.0,Cubic,216,F-43m,0.48240000000000016,True,False,0.27276363393971714,Ti: 0.3333; Sn: 0.3333; Pd: 0.3333
mp-1222668,Li2AlGa,"Al, Ga, Li",3,0.0,Cubic,216,F-43m,0.0,True,True,0.3717862289004261,Li: 0.5000; Al: 0.2500; Ga: 0.2500
mp-1211864,La4CdNi,"Cd, La, Ni",3,0.0,Cubic,216,F-43m,0.0,True,True,0.3360390188984341,La: 0.6667; Cd: 0.1667; Ni: 0.1667
mp-1222610,Li2MgZn,"Li, Mg, Zn",3,0.01127658124999975,Cubic,216,F-43m,0.0,True,True,0.27739863013360394,Li: 0.5000; Mg: 0.2500; Zn: 0.2500
mp-30816,Li2AlPd,"Al, Li, Pd",3,0.0,Cubic,216,F-43m,0.0,False,True,0.5073645139345085,Li: 0.5000; Al: 0.2500; Pd: 0.2500
mp-1222653,Li2MgAg,"Ag, Li, Mg",3,0.002156627499999786,Cubic,216,F-43m,0.0,True,True,0.3878788470643894,Li: 0.5000; Mg: 0.2500; Ag: 0.2500
mp-30459,ScNiBi,"Bi, Ni, Sc",3,0.0,Cubic,216,F-43m,0.1869000000000005,False,False,0.28871362204709966,Sc: 0.3333; Ni: 0.3333; Bi: 0.3333
mp-1215207,ZrScFe4,"Fe, Sc, Zr",3,0.0,Cubic,216,F-43m,0.0,True,True,0.22879515340632156,Zr: 0.1667; Sc: 0.1667; Fe: 0.6667
mp-1077796,LaInPt4,"In, La, Pt",3,0.0,Cubic,216,F-43m,0.0,False,True,0.4419653078391258,La: 0.1667; In: 0.1667; Pt: 0.6667
mp-1207810,Y4MgPt,"Mg, Pt, Y",3,0.0,Cubic,216,F-43m,0.014600000000000168,True,False,0.3897185594189164,Y: 0.6667; Mg: 0.1667; Pt: 0.1667
mp-2988,Li2GaRh,"Ga, Li, Rh",3,0.0,Cubic,216,F-43m,0.0,False,True,0.5578250173665573,Li: 0.5000; Ga: 0.2500; Rh: 0.2500
mp-13434,CaMgNi4,"Ca, Mg, Ni",3,0.006002521041661879,Cubic,216,F-43m,0.0,False,True,0.3669884951269665,Ca: 0.1667; Mg: 0.1667; Ni: 0.6667
mp-1222683,LaYAl4,"Al, La, Y",3,0.022642142500000517,Cubic,216,F-43m,0.0,True,True,0.2149418526020468,La: 0.1667; Y: 0.1667; Al: 0.6667
mp-1217889,TaTiBe4,"Be, Ta, Ti",3,0.04803626321428567,Cubic,216,F-43m,0.0,True,True,0.026246692913372727,Ta: 0.1667; Ti: 0.1667; Be: 0.6667
mp-1207822,Y4MgIr,"Ir, Mg, Y",3,0.0,Cubic,216,F-43m,0.0,True,True,0.3600192896066667,Y: 0.6667; Mg: 0.1667; Ir: 0.1667
mp-1217247,Ti4CoNi,"Co, Ni, Ti",3,0.0,Cubic,216,F-43m,0.0,True,True,0.16757253819034768,Ti: 0.6667; Co: 0.1667; Ni: 0.1667
mp-1224067,HfZrW4,"Hf, W, Zr",3,3.9947499992365465e-05,Cubic,216,F-43m,0.0,True,True,0.4926938422816162,Hf: 0.1667; Zr: 0.1667; W: 0.6667
mp-11869,HfSnPd,"Hf, Pd, Sn",3,0.0,Cubic,216,F-43m,0.033800000000000274,False,False,0.380525951808809,Hf: 0.3333; Sn: 0.3333; Pd: 0.3333
mp-1215709,YZrFe4,"Fe, Y, Zr",3,0.011133083333335847,Cubic,216,F-43m,0.0,True,True,0.26354948934371575,Y: 0.1667; Zr: 0.1667; Fe: 0.6667
mp-1207143,LaCd2Cu,"Cd, Cu, La",3,0.07696694000000193,Cubic,216,F-43m,0.0,True,True,0.2983705749567138,La: 0.2500; Cd: 0.5000; Cu: 0.2500
mp-1215224,ZrNbFe4,"Fe, Nb, Zr",3,0.01997141499999877,Cubic,216,F-43m,0.0,True,True,0.18889297381203873,Zr: 0.1667; Nb: 0.1667; Fe: 0.6667
mp-31452,ZrNiBi,"Bi, Ni, Zr",3,0.07089598224073956,Cubic,216,F-43m,0.0,False,True,0.3026916289265731,Zr: 0.3333; Ni: 0.3333; Bi: 0.3333
mp-30392,Li2InAu,"Au, In, Li",3,0.0,Cubic,216,F-43m,0.0,False,True,0.6483054835492292,Li: 0.5000; In: 0.2500; Au: 0.2500
mp-1217277,Ti4FeNi,"Fe, Ni, Ti",3,0.015678900277777963,Cubic,216,F-43m,0.0,True,True,0.1572683481611393,Ti: 0.6667; Fe: 0.1667; Ni: 0.1667
mp-1215214,ZrNbCo4,"Co, Nb, Zr",3,0.027027491277779703,Cubic,216,F-43m,0.0,True,True,0.21058780169378802,Zr: 0.1667; Nb: 0.1667; Co: 0.6667
mp-1070869,ZrCu4Ag,"Ag, Cu, Zr",3,0.0,Cubic,216,F-43m,0.0,False,True,0.2149418526020467,Zr: 0.1667; Cu: 0.6667; Ag: 0.1667
mp-30460,YNiBi,"Bi, Ni, Y",3,0.0,Cubic,216,F-43m,0.2016,False,False,0.3540558650206992,Y: 0.3333; Ni: 0.3333; Bi: 0.3333
mp-1222611,Li2TlAg,"Ag, Li, Tl",3,0.0,Cubic,216,F-43m,0.0,True,True,0.41233329964968873,Li: 0.5000; Tl: 0.2500; Ag: 0.2500
mp-11808,ScNi4Sn,"Ni, Sc, Sn",3,0.0,Cubic,216,F-43m,0.0,False,True,0.20949675149960884,Sc: 0.1667; Ni: 0.6667; Sn: 0.1667
mp-1100408,TaSnRh,"Rh, Sn, Ta",3,0.0,Cubic,216,F-43m,1.0594000000000001,True,False,0.3201388587611458,Ta: 0.3333; Sn: 0.3333; Rh: 0.3333
mp-1207011,ScInNi4,"In, Ni, Sc",3,0.0,Cubic,216,F-43m,0.0,True,True,0.2009698705997714,Sc: 0.1667; In: 0.1667; Ni: 0.6667
mp-1222652,Li2MgPb,"Li, Mg, Pb",3,0.0,Cubic,216,F-43m,0.0,True,True,0.5535792626173781,Li: 0.5000; Mg: 0.2500; Pb: 0.2500
mp-1217010,TiBe4Nb,"Be, Nb, Ti",3,0.037603625972220556,Cubic,216,F-43m,0.0,True,True,0.017320508075688787,Ti: 0.1667; Be: 0.6667; Nb: 0.1667
mp-568398,CaBiAu,"Au, Bi, Ca",3,0.0,Cubic,216,F-43m,0.0,False,True,0.6396526835365858,Ca: 0.3333; Bi: 0.3333; Au: 0.3333
mp-570820,La4CdRu,"Cd, La, Ru",3,0.0,Cubic,216,F-43m,0.0,False,True,0.4246730768746969,La: 0.6667; Cd: 0.1667; Ru: 0.1667
mp-1222608,Li2SnPd,"Li, Pd, Sn",3,0.0,Cubic,216,F-43m,0.0,True,True,0.5565069631190611,Li: 0.5000; Sn: 0.2500; Pd: 0.2500
mp-1216666,TiNbCr4,"Cr, Nb, Ti",3,0.09645724055555505,Cubic,216,F-43m,0.0,True,True,0.045825756949558344,Ti: 0.1667; Nb: 0.1667; Cr: 0.6667
mp-30807,ZrNi4Sn,"Ni, Sn, Zr",3,0.03278016317708499,Cubic,216,F-43m,0.0,False,True,0.22063670491456205,Zr: 0.1667; Ni: 0.6667; Sn: 0.1667
mp-569025,Ba19Na29Li13,"Ba, Li, Na",3,0.0019011825744299493,Cubic,216,F-43m,0.009400000000000075,False,False,0.03206081294906789,Ba: 0.3115; Na: 0.4754; Li: 0.2131
mp-1211561,La4MgNi,"La, Mg, Ni",3,0.006260068988094503,Cubic,216,F-43m,0.0,True,True,0.29631064780058103,La: 0.6667; Mg: 0.1667; Ni: 0.1667
mp-3201,Li2GaPd,"Ga, Li, Pd",3,0.0,Cubic,216,F-43m,0.0,False,True,0.5307247403315584,Li: 0.5000; Ga: 0.2500; Pd: 0.2500
mp-568156,Y4CdRu,"Cd, Ru, Y",3,0.0,Cubic,216,F-43m,0.0,False,True,0.37212975634253653,Y: 0.6667; Cd: 0.1667; Ru: 0.1667
mp-569333,Li2AgBi,"Ag, Bi, Li",3,0.005181592083334685,Cubic,216,F-43m,0.0,False,True,0.49851654937424095,Li: 0.5000; Ag: 0.2500; Bi: 0.2500
mp-961713,ZrSnPt,"Pt, Sn, Zr",3,0.0,Cubic,216,F-43m,0.9627999999999997,True,False,0.39465878370505764,Zr: 0.3333; Sn: 0.3333; Pt: 0.3333
mp-1197200,Zn89(Cr2Au5)2,"Au, Cr, Zn",3,0.006883749902911518,Cubic,216,F-43m,0.019299999999999873,False,False,0.19770995235550656,Zn: 0.9271; Cr: 0.0208; Au: 0.0521
mp-30349,Li2AgPb,"Ag, Li, Pb",3,0.0,Cubic,216,F-43m,0.0,False,True,0.5921359641163506,Li: 0.5000; Ag: 0.2500; Pb: 0.2500
mp-1216635,TiSnIr,"Ir, Sn, Ti",3,0.008294697424240383,Cubic,216,F-43m,0.0,True,True,0.27276363393971714,Ti: 0.3333; Sn: 0.3333; Ir: 0.3333
mp-29733,MgNiBi,"Bi, Mg, Ni",3,0.0,Cubic,216,F-43m,0.0,False,True,0.31201851796897495,Mg: 0.3333; Ni: 0.3333; Bi: 0.3333
mp-1215020,Al2(Zn13Pd3)3,"Al, Pd, Zn",3,0.0,Cubic,216,F-43m,0.0,True,True,0.207332410382607,Al: 0.1111; Zn: 0.7222; Pd: 0.1667
mp-1206681,ScBiPd,"Bi, Pd, Sc",3,0.0,Cubic,216,F-43m,0.0,True,True,0.36110940170535577,Sc: 0.3333; Bi: 0.3333; Pd: 0.3333
mp-567347,Li2AgSn,"Ag, Li, Sn",3,0.0,Cubic,216,F-43m,0.0,False,True,0.48261656623037713,Li: 0.5000; Ag: 0.2500; Sn: 0.2500
mp-1207802,Y4CdIr,"Cd, Ir, Y",3,0.0,Cubic,216,F-43m,0.0,True,True,0.37212975634253653,Y: 0.6667; Cd: 0.1667; Ir: 0.1667
mp-1072944,ScCu4Sn,"Cu, Sc, Sn",3,0.06521864000000122,Cubic,216,F-43m,0.0,False,True,0.20688160865577193,Sc: 0.1667; Cu: 0.6667; Sn: 0.1667
mp-1224188,HfZrFe4,"Fe, Hf, Zr",3,0.0,Cubic,216,F-43m,0.0,True,True,0.24292774417280727,Hf: 0.1667; Zr: 0.1667; Fe: 0.6667
mp-672679,Y4InIr,"In, Ir, Y",3,0.0,Cubic,216,F-43m,0.0,False,True,0.3826951208933237,Y: 0.6667; In: 0.1667; Ir: 0.1667
mp-1189147,Mn3Ga4Ni9,"Ga, Mn, Ni",3,0.018767113124999568,Cubic,221,Pm-3m,0.0,True,True,0.13506942659240093,Mn: 0.1875; Ga: 0.2500; Ni: 0.5625
mp-1104503,YGa3Ru,"Ga, Ru, Y",3,0.0,Cubic,221,Pm-3m,0.0,False,True,0.3137514940203473,Y: 0.2000; Ga: 0.6000; Ru: 0.2000
mp-571068,K3(Mg10In7)2,"In, K, Mg",3,0.02113862036703118,Cubic,221,Pm-3m,0.0,False,True,0.3241126347429239,K: 0.1500; Mg: 0.5000; In: 0.3500
mp-1214812,Cs3(Na13In24)2,"Cs, In, Na",3,0.0,Cubic,223,Pm-3n,0.016000000000000014,True,False,0.43066199042868875,Cs: 0.0750; Na: 0.3250; In: 0.6000
mp-4363,Ca3Sn13Rh4,"Ca, Rh, Sn",3,0.0,Cubic,223,Pm-3n,0.0,False,True,0.3902819493648149,Ca: 0.1500; Sn: 0.6500; Rh: 0.2000
mp-672373,La3Co4Sn13,"Co, La, Sn",3,0.0,Cubic,223,Pm-3n,0.0,False,True,0.30198509897013126,La: 0.1500; Co: 0.2000; Sn: 0.6500
mp-1214141,Ca3Sn13Pt4,"Ca, Pt, Sn",3,0.012088611269231109,Cubic,223,Pm-3n,0.0,True,True,0.3902819493648149,Ca: 0.1500; Sn: 0.6500; Pt: 0.2000
mp-1200470,Ca3Co4Sn13,"Ca, Co, Sn",3,0.001964379333332822,Cubic,223,Pm-3n,0.0,False,True,0.3375203697556638,Ca: 0.1500; Co: 0.2000; Sn: 0.6500
mp-30513,La3Sn13Rh4,"La, Rh, Sn",3,0.0009987026250000142,Cubic,223,Pm-3n,0.0,False,True,0.35664408028172845,La: 0.1500; Sn: 0.6500; Rh: 0.2000
mp-1200211,Ca3Sn13Ir4,"Ca, Ir, Sn",3,0.0,Cubic,223,Pm-3n,0.0,False,True,0.3748919844435194,Ca: 0.1500; Sn: 0.6500; Ir: 0.2000
mp-1197480,La3Sn13Ir4,"Ir, La, Sn",3,0.0,Cubic,223,Pm-3n,0.0,False,True,0.3404394219240774,La: 0.1500; Sn: 0.6500; Ir: 0.2000
mp-1196992,La3Sn13Ru4,"La, Ru, Sn",3,0.0,Cubic,223,Pm-3n,0.0,False,True,0.3404394219240774,La: 0.1500; Sn: 0.6500; Ru: 0.2000
mp-30517,Sr3Sn13Rh4,"Rh, Sn, Sr",3,0.0,Cubic,223,Pm-3n,0.0,False,True,0.4072330413903076,Sr: 0.1500; Sn: 0.6500; Rh: 0.2000
mp-30756,LaSn3Ru,"La, Ru, Sn",3,0.0,Cubic,223,Pm-3n,0.0,False,True,0.37955763725684666,La: 0.2000; Sn: 0.6000; Ru: 0.2000
mp-680654,Sr3Rh4Pb13,"Pb, Rh, Sr",3,0.0,Cubic,223,Pm-3n,0.0,False,True,0.48894887258280906,Sr: 0.1500; Rh: 0.2000; Pb: 0.6500
mp-684037,K29NaHg48,"Hg, K, Na",3,0.017018803653840564,Cubic,223,Pm-3n,0.0,False,True,0.5724221722878654,K: 0.3718; Na: 0.0128; Hg: 0.6154
mp-1196422,Sr3Sn13Ir4,"Ir, Sn, Sr",3,0.0,Cubic,223,Pm-3n,0.0,False,True,0.39220243497459323,Sr: 0.1500; Sn: 0.6500; Ir: 0.2000
mp-684127,K3(Na13In24)2,"In, K, Na",3,0.0,Cubic,223,Pm-3n,0.0,False,True,0.427380904463454,K: 0.0750; Na: 0.3250; In: 0.6000
mp-1203228,La3Rh4Pb13,"La, Pb, Rh",3,0.0,Cubic,223,Pm-3n,0.0,False,True,0.4354362754755281,La: 0.1500; Rh: 0.2000; Pb: 0.6500
mp-1211830,K4Sn20Hg3,"Hg, K, Sn",3,0.011598736456787329,Cubic,223,Pm-3n,0.0,True,True,0.407024736106381,K: 0.1481; Sn: 0.7407; Hg: 0.1111
mp-1209556,Rb4Sn20Hg3,"Hg, Rb, Sn",3,0.011831627411326817,Cubic,223,Pm-3n,0.0,True,True,0.407024736106381,Rb: 0.1481; Sn: 0.7407; Hg: 0.1111
mp-13486,LaCoCu12,"Co, Cu, La",3,0.0010392845982156729,Cubic,226,Fm-3c,0.0,False,True,0.20569940422363686,La: 0.0714; Co: 0.0714; Cu: 0.8571
mp-1192952,LaBeCu12,"Be, Cu, La",3,0.0,Cubic,226,Fm-3c,0.0,False,True,0.216744229968158,La: 0.0714; Be: 0.0714; Cu: 0.8571
mp-1191954,Y3(GaNi3)2,"Ga, Ni, Y",3,0.0,Cubic,229,Im-3m,0.0,False,True,0.330713514346524,Y: 0.4286; Ga: 0.1429; Ni: 0.4286
mp-1197580,Li6Ca17Hg9,"Ca, Hg, Li",3,0.0,Cubic,229,Im-3m,0.0,False,True,0.4520163160771965,Li: 0.1875; Ca: 0.5312; Hg: 0.2812
mp-1192004,La6Zn4Pd13,"La, Pd, Zn",3,0.0,Cubic,229,Im-3m,0.0,False,True,0.4710323296511181,La: 0.2609; Zn: 0.1739; Pd: 0.5652
mp-1106026,Y4Ga12Fe,"Fe, Ga, Y",3,0.023280382941176292,Cubic,229,Im-3m,0.0,False,True,0.25096354110096897,Y: 0.2353; Ga: 0.7059; Fe: 0.0588
mp-4577,Y3(AlNi3)2,"Al, Ni, Y",3,0.0,Cubic,229,Im-3m,0.0,False,True,0.3197958532487593,Y: 0.4286; Al: 0.1429; Ni: 0.4286
mp-866669,Sr17(Li2Hg3)3,"Hg, Li, Sr",3,0.0,Cubic,229,Im-3m,0.0,False,True,0.3593511715061048,Sr: 0.7727; Li: 0.0909; Hg: 0.1364
mp-510548,Y4Ga12Pt,"Ga, Pt, Y",3,0.0,Cubic,229,Im-3m,0.0,False,True,0.28729739363165696,Y: 0.2353; Ga: 0.7059; Pt: 0.0588
mp-5376,Y4Ga12Pd,"Ga, Pd, Y",3,0.0018575702205883005,Cubic,229,Im-3m,0.0,False,True,0.2782520825677451,Y: 0.2353; Ga: 0.7059; Pd: 0.0588
mp-570845,Zn(GaNi)3,"Ga, Ni, Zn",3,0.0,Cubic,230,Ia-3d,0.0,False,True,0.10708252269472675,Zn: 0.3333; Ga: 0.3333; Ni: 0.3333
mp-866037,GaNiRh2,"Ga, Ni, Rh",3,0.0,Cubic,225,Fm-3m,0.0,True,True,0.21295539439046846,Ga: 0.2500; Ni: 0.2500; Rh: 0.5000
mp-861619,TiZnPt2,"Pt, Ti, Zn",3,0.018284721666664616,Cubic,225,Fm-3m,0.0,True,True,0.3447009573528915,Ti: 0.2500; Zn: 0.2500; Pt: 0.5000
mp-972935,ScZnNi2,"Ni, Sc, Zn",3,0.006988724136905766,Cubic,225,Fm-3m,0.0,True,True,0.2269774217846347,Sc: 0.2500; Zn: 0.2500; Ni: 0.5000
mp-1185972,Mn2NbGa,"Ga, Mn, Nb",3,0.00868212789062639,Cubic,225,Fm-3m,0.0,True,True,0.1073254396683284,Mn: 0.5000; Nb: 0.2500; Ga: 0.2500
mp-1192673,Zr6Al16Rh7,"Al, Rh, Zr",3,0.0,Cubic,225,Fm-3m,0.0,False,True,0.3373467855864955,Zr: 0.2069; Al: 0.5517; Rh: 0.2414
mp-865235,Ti6Al16Ni7,"Al, Ni, Ti",3,0.0,Cubic,225,Fm-3m,0.0,False,True,0.13921898677350075,Ti: 0.2069; Al: 0.5517; Ni: 0.2414
mp-866033,AlZnRh2,"Al, Rh, Zn",3,0.0,Cubic,225,Fm-3m,0.0,True,True,0.3253075467922623,Al: 0.2500; Zn: 0.2500; Rh: 0.5000
mp-862371,Sc2RuPt,"Pt, Ru, Sc",3,0.0,Cubic,225,Fm-3m,0.0,True,True,0.440908153700972,Sc: 0.5000; Ru: 0.2500; Pt: 0.2500
mp-865807,Ti2MoIr,"Ir, Mo, Ti",3,0.0,Cubic,225,Fm-3m,0.0,True,True,0.3203123475609394,Ti: 0.5000; Mo: 0.2500; Ir: 0.2500
mp-1186005,MnZnNi2,"Mn, Ni, Zn",3,0.0,Cubic,225,Fm-3m,0.0,True,True,0.15898113095584643,Mn: 0.2500; Zn: 0.2500; Ni: 0.5000
mp-864715,HfInCo2,"Co, Hf, In",3,0.0,Cubic,225,Fm-3m,0.0,True,True,0.24020824298928622,Hf: 0.2500; In: 0.2500; Co: 0.5000
mp-11512,LiAl2Ir,"Al, Ir, Li",3,0.0,Cubic,225,Fm-3m,0.0,False,True,0.43145104009609253,Li: 0.2500; Al: 0.5000; Ir: 0.2500
mp-867842,ScInRh2,"In, Rh, Sc",3,0.0,Cubic,225,Fm-3m,0.0,True,True,0.38480514549574296,Sc: 0.2500; In: 0.2500; Rh: 0.5000
mp-1187765,Y2AlRu,"Al, Ru, Y",3,0.0921340957142851,Cubic,225,Fm-3m,0.0,True,True,0.4010221315588456,Y: 0.5000; Al: 0.2500; Ru: 0.2500
mp-1184757,K2CdAu,"Au, Cd, K",3,0.05577365481770613,Cubic,225,Fm-3m,0.0,True,True,0.7138408436059119,K: 0.5000; Cd: 0.2500; Au: 0.2500
mp-867333,Ba2CdPb,"Ba, Cd, Pb",3,0.0,Cubic,225,Fm-3m,0.0,True,True,0.60398675482166,Ba: 0.5000; Cd: 0.2500; Pb: 0.2500
mp-1184956,Li2TlHg,"Hg, Li, Tl",3,0.009609435000001554,Cubic,225,Fm-3m,0.0,True,True,0.43620522692879327,Li: 0.5000; Tl: 0.2500; Hg: 0.2500