material_id,formula,elements,num_elements,energy_above_hull,crystal_system,spacegroup_number,spacegroup_symbol,band_gap,theoretical,is_metal,electronegativity_difference,atomic_concentrations
mp-1186937,Sc2CdHg,"Cd, Hg, Sc",3,0.0,Cubic,225,Fm-3m,0.0,True,True,0.2661179249881525,Sc: 0.5000; Cd: 0.2500; Hg: 0.2500
mp-864980,MnAlRu2,"Al, Mn, Ru",3,0.0,Cubic,225,Fm-3m,0.0,True,True,0.310724958765787,Mn: 0.2500; Al: 0.2500; Ru: 0.5000
mp-865186,MgGaIr2,"Ga, Ir, Mg",3,0.0,Cubic,225,Fm-3m,0.0,True,True,0.3655817282086183,Mg: 0.2500; Ga: 0.2500; Ir: 0.5000
mp-1183586,CaInPd2,"Ca, In, Pd",3,0.029436112578125062,Cubic,225,Fm-3m,0.0,True,True,0.48997448913183234,Ca: 0.2500; In: 0.2500; Pd: 0.5000
mp-864921,MgZrIr2,"Ir, Mg, Zr",3,0.0,Cubic,225,Fm-3m,0.0,True,True,0.4400568145137626,Mg: 0.2500; Zr: 0.2500; Ir: 0.5000
mp-1186953,Sc2ZnAg,"Ag, Sc, Zn",3,0.01248858499999983,Cubic,225,Fm-3m,0.0,True,True,0.23669600757089243,Sc: 0.5000; Zn: 0.2500; Ag: 0.2500
mp-865600,Y2IrPd,"Ir, Pd, Y",3,0.0,Cubic,225,Fm-3m,0.0,True,True,0.4900000000000001,Y: 0.5000; Ir: 0.2500; Pd: 0.2500
mp-862711,Sc2CdIn,"Cd, In, Sc",3,0.0,Cubic,225,Fm-3m,0.0,True,True,0.19018083499658944,Sc: 0.5000; Cd: 0.2500; In: 0.2500
mp-972323,TaNbTc2,"Nb, Ta, Tc",3,0.0,Cubic,225,Fm-3m,0.0,True,True,0.1785357107135712,Ta: 0.2500; Nb: 0.2500; Tc: 0.5000
mp-977435,ZrAlRh2,"Al, Rh, Zr",3,0.0,Cubic,225,Fm-3m,0.0,True,True,0.4169232543286593,Zr: 0.2500; Al: 0.2500; Rh: 0.5000
mp-865874,Li2AgHg,"Ag, Hg, Li",3,0.0,Cubic,225,Fm-3m,0.0,True,True,0.4931214353483328,Li: 0.5000; Ag: 0.2500; Hg: 0.2500
mp-862287,BeAlRh2,"Al, Be, Rh",3,0.0,Cubic,225,Fm-3m,0.0,True,True,0.3452897334123908,Be: 0.2500; Al: 0.2500; Rh: 0.5000
mp-1187716,Y2ZnCu,"Cu, Y, Zn",3,0.02206997750000017,Cubic,225,Fm-3m,0.0,True,True,0.29123658767400773,Y: 0.5000; Zn: 0.2500; Cu: 0.2500
mp-867319,Al2CoIr,"Al, Co, Ir",3,0.0,Cubic,225,Fm-3m,0.0,True,True,0.24295061226512685,Al: 0.5000; Co: 0.2500; Ir: 0.2500
mp-864807,HfZnNi2,"Hf, Ni, Zn",3,0.0,Cubic,225,Fm-3m,0.0,True,True,0.25023738729454476,Hf: 0.2500; Zn: 0.2500; Ni: 0.5000
mp-862563,Sc2BeTc,"Be, Sc, Tc",3,0.04061840231250091,Cubic,225,Fm-3m,0.0,True,True,0.22083647796503178,Sc: 0.5000; Be: 0.2500; Tc: 0.2500
mp-10893,MnAlPt2,"Al, Mn, Pt",3,0.006286891875000755,Cubic,225,Fm-3m,0.0,False,True,0.35064226784573466,Mn: 0.2500; Al: 0.2500; Pt: 0.5000
mp-22463,TiInNi2,"In, Ni, Ti",3,0.03213600499999991,Cubic,225,Fm-3m,0.0,False,True,0.15107944929738124,Ti: 0.2500; In: 0.2500; Ni: 0.5000
mp-867922,ScAlRh2,"Al, Rh, Sc",3,0.0,Cubic,225,Fm-3m,0.0,True,True,0.4072084846856704,Sc: 0.2500; Al: 0.2500; Rh: 0.5000
mp-1185965,MgSc2Ga,"Ga, Mg, Sc",3,0.026163547812499743,Cubic,225,Fm-3m,0.0,True,True,0.203100960115899,Mg: 0.2500; Sc: 0.5000; Ga: 0.2500
mp-1183386,BaSrTl2,"Ba, Sr, Tl",3,0.0,Cubic,225,Fm-3m,0.0,True,True,0.3506422678457348,Ba: 0.2500; Sr: 0.2500; Tl: 0.5000
mp-865591,Ti2NiMo,"Mo, Ni, Ti",3,0.0,Cubic,225,Fm-3m,0.0,True,True,0.2628093415386904,Ti: 0.5000; Ni: 0.2500; Mo: 0.2500
mp-1193078,Hf6Ga16Ni7,"Ga, Hf, Ni",3,0.038221021034485325,Cubic,225,Fm-3m,0.0,False,True,0.2227217862147679,Hf: 0.2069; Ga: 0.5517; Ni: 0.2414
mp-861958,Ti2MnBe,"Be, Mn, Ti",3,0.0,Cubic,225,Fm-3m,0.0,True,True,0.012247448713915901,Ti: 0.5000; Mn: 0.2500; Be: 0.2500
mp-979751,TaTiFe2,"Fe, Ta, Ti",3,0.018464070384615283,Cubic,225,Fm-3m,0.0,True,True,0.15564382416273384,Ta: 0.2500; Ti: 0.2500; Fe: 0.5000
mp-1185861,MgGaPt2,"Ga, Mg, Pt",3,0.0,Cubic,225,Fm-3m,0.0,True,True,0.4010610926031094,Mg: 0.2500; Ga: 0.2500; Pt: 0.5000
mp-1187209,Ta2TiW,"Ta, Ti, W",3,0.025902112083336704,Cubic,225,Fm-3m,0.0,True,True,0.36698092593485016,Ta: 0.5000; Ti: 0.2500; W: 0.2500
mp-1185892,MgMnPd2,"Mg, Mn, Pd",3,0.0,Cubic,225,Fm-3m,0.0,True,True,0.3942397747564292,Mg: 0.2500; Mn: 0.2500; Pd: 0.5000
mp-1184619,Hf2ReRu,"Hf, Re, Ru",3,0.03282316259999973,Cubic,225,Fm-3m,0.0,True,True,0.3897114317029974,Hf: 0.5000; Re: 0.2500; Ru: 0.2500
mp-862654,LaGaAu2,"Au, Ga, La",3,0.04985631893633524,Cubic,225,Fm-3m,0.0,True,True,0.5977614490747961,La: 0.2500; Ga: 0.2500; Au: 0.5000
mp-569823,YInAg2,"Ag, In, Y",3,0.0,Cubic,225,Fm-3m,0.0,False,True,0.29227555491350965,Y: 0.2500; In: 0.2500; Ag: 0.5000
mp-865504,YAlAg2,"Ag, Al, Y",3,0.01581550334820392,Cubic,225,Fm-3m,0.0,True,True,0.2920937349550654,Y: 0.2500; Al: 0.2500; Ag: 0.5000
mp-866010,CaCdAu2,"Au, Ca, Cd",3,0.0,Cubic,225,Fm-3m,0.0,True,True,0.6453826384401737,Ca: 0.2500; Cd: 0.2500; Au: 0.5000
mp-865869,Be2CuPt,"Be, Cu, Pt",3,0.0,Cubic,225,Fm-3m,0.0,True,True,0.2926602125332378,Be: 0.5000; Cu: 0.2500; Pt: 0.2500
mp-867187,ScInIr2,"In, Ir, Sc",3,0.0,Cubic,225,Fm-3m,0.0,True,True,0.348245602987317,Sc: 0.2500; In: 0.2500; Ir: 0.5000
mp-1187738,VSnRu2,"Ru, Sn, V",3,0.0,Cubic,225,Fm-3m,0.0,True,True,0.23370654676324337,V: 0.2500; Sn: 0.2500; Ru: 0.5000
mp-862367,Sc2NiRu,"Ni, Ru, Sc",3,0.0,Cubic,225,Fm-3m,0.0,True,True,0.36231029518908237,Sc: 0.5000; Ni: 0.2500; Ru: 0.2500
mp-1185884,MgHgPd2,"Hg, Mg, Pd",3,0.0,Cubic,225,Fm-3m,0.0,True,True,0.36574410453211686,Mg: 0.2500; Hg: 0.2500; Pd: 0.5000
mp-30347,ScInAg2,"Ag, In, Sc",3,0.0,Cubic,225,Fm-3m,0.0,False,True,0.23334523779156063,Sc: 0.2500; In: 0.2500; Ag: 0.5000
mp-1185028,Li2CaAl,"Al, Ca, Li",3,0.019565215833333482,Cubic,225,Fm-3m,0.0,True,True,0.2700347199898562,Li: 0.5000; Ca: 0.2500; Al: 0.2500
mp-866218,Ti2MnRh,"Mn, Rh, Ti",3,0.0,Cubic,225,Fm-3m,0.0,True,True,0.31901214710415016,Ti: 0.5000; Mn: 0.2500; Rh: 0.2500
mp-1184057,CuSnPd2,"Cu, Pd, Sn",3,0.00840952187499866,Cubic,225,Fm-3m,0.0,True,True,0.13665650368716462,Cu: 0.2500; Sn: 0.2500; Pd: 0.5000
mp-861953,AlFeRh2,"Al, Fe, Rh",3,0.0,Cubic,225,Fm-3m,0.0,True,True,0.29060282173440766,Al: 0.2500; Fe: 0.2500; Rh: 0.5000
mp-4652,MnRh2Pb,"Mn, Pb, Rh",3,0.023400835000000342,Cubic,225,Fm-3m,0.0,False,True,0.3239598740585012,Mn: 0.2500; Rh: 0.5000; Pb: 0.2500
mp-861662,CaZrRh2,"Ca, Rh, Zr",3,0.04841057997684928,Cubic,225,Fm-3m,0.0,True,True,0.5695776944368519,Ca: 0.2500; Zr: 0.2500; Rh: 0.5000
mp-11537,NbAlRu2,"Al, Nb, Ru",3,0.0,Cubic,225,Fm-3m,0.0,False,True,0.297521007661644,Nb: 0.2500; Al: 0.2500; Ru: 0.5000
mp-866114,HfTc2W,"Hf, Tc, W",3,0.0,Cubic,225,Fm-3m,0.0,True,True,0.3763973963778176,Hf: 0.2500; Tc: 0.5000; W: 0.2500
mp-862694,Al2IrRh,"Al, Ir, Rh",3,0.0,Cubic,225,Fm-3m,0.0,True,True,0.3162672920173693,Al: 0.5000; Ir: 0.2500; Rh: 0.2500
mp-865577,Li2CdAu,"Au, Cd, Li",3,0.0,Cubic,225,Fm-3m,0.0,True,True,0.6421594428177476,Li: 0.5000; Cd: 0.2500; Au: 0.2500
mp-865803,Ti2MoPt,"Mo, Pt, Ti",3,0.0,Cubic,225,Fm-3m,0.0,True,True,0.3426368339802362,Ti: 0.5000; Mo: 0.2500; Pt: 0.2500
mp-1183634,CdAgAu2,"Ag, Au, Cd",3,0.004966936435195635,Cubic,225,Fm-3m,0.0,True,True,0.3747332384510347,Cd: 0.2500; Ag: 0.2500; Au: 0.5000
mp-1187186,SrLaHg2,"Hg, La, Sr",3,0.0,Cubic,225,Fm-3m,0.0,True,True,0.4903761311483258,Sr: 0.2500; La: 0.2500; Hg: 0.5000
mp-1214229,Be15(Nb3Ni4)2,"Be, Nb, Ni",3,0.0,Cubic,225,Fm-3m,0.0,True,True,0.12960285809520664,Be: 0.6818; Nb: 0.1364; Ni: 0.1818
mp-1228036,Ba4GaSn3,"Ba, Ga, Sn",3,0.01922657968750041,Orthorhombic,25,Pmm2,0.0,True,True,0.5182889517441018,Ba: 0.5000; Ga: 0.1250; Sn: 0.3750
mp-1220426,NbNi6Mo,"Mo, Nb, Ni",3,0.0,Orthorhombic,25,Pmm2,0.0,True,True,0.14060138690638865,Nb: 0.1250; Ni: 0.7500; Mo: 0.1250
mp-1223225,La2Al3Sn,"Al, La, Sn",3,0.009637529861109329,Orthorhombic,25,Pmm2,0.0,True,True,0.30764788675078236,La: 0.3333; Al: 0.5000; Sn: 0.1667
mp-1217923,TaNi6Mo,"Mo, Ni, Ta",3,0.0,Orthorhombic,25,Pmm2,0.0,True,True,0.1685971530008737,Ta: 0.1250; Ni: 0.7500; Mo: 0.1250
mp-1215804,Zn(InAu4)3,"Au, In, Zn",3,0.007415753125002311,Orthorhombic,25,Pmm2,0.0,True,True,0.39071515626263253,Zn: 0.1667; In: 0.1667; Au: 0.6667
mp-1219423,Sc2Ga3Cu,"Cu, Ga, Sc",3,0.0,Orthorhombic,25,Pmm2,0.0,True,True,0.22499999999999995,Sc: 0.3333; Ga: 0.5000; Cu: 0.1667
mp-1223411,La4Ni3Sn8,"La, Ni, Sn",3,0.007899338388893895,Orthorhombic,25,Pmm2,0.0,True,True,0.37476155382085574,La: 0.2667; Ni: 0.2000; Sn: 0.5333
mp-1224155,In3SnAu12,"Au, In, Sn",3,0.00980057718749805,Orthorhombic,25,Pmm2,0.0,True,True,0.31204717191476034,In: 0.1875; Sn: 0.0625; Au: 0.7500
mp-1220433,Nb4CoPt3,"Co, Nb, Pt",3,0.05584733941666542,Orthorhombic,25,Pmm2,0.0,True,True,0.31480152477394374,Nb: 0.5000; Co: 0.1250; Pt: 0.3750
mp-1228314,Ba3ZnHg10,"Ba, Hg, Zn",3,0.018773877390112048,Orthorhombic,25,Pmm2,0.0,True,True,0.4513064934392238,Ba: 0.2143; Zn: 0.0714; Hg: 0.7143
mp-1227450,Bi3Pd12Pb,"Bi, Pb, Pd",3,0.015762574531251516,Orthorhombic,25,Pmm2,0.0,True,True,0.08046495743489837,Bi: 0.1875; Pd: 0.7500; Pb: 0.0625
mp-1218103,Ta4(CuNi3)3,"Cu, Ni, Ta",3,0.026144479500000983,Orthorhombic,25,Pmm2,0.0,True,True,0.2037730048362638,Ta: 0.5000; Cu: 0.1250; Ni: 0.3750
mp-1223891,In3SnAu4,"Au, In, Sn",3,0.0,Orthorhombic,25,Pmm2,0.0,True,True,0.3617233058568386,In: 0.3750; Sn: 0.1250; Au: 0.5000
mp-1218380,SrCa3Ag4,"Ag, Ca, Sr",3,0.014780863593749416,Orthorhombic,25,Pmm2,0.0,True,True,0.47149860816337513,Sr: 0.1250; Ca: 0.3750; Ag: 0.5000
mp-1223749,InNi2Sn,"In, Ni, Sn",3,0.0069619088541665874,Orthorhombic,25,Pmm2,0.0,True,True,0.06670832032063163,In: 0.2500; Ni: 0.5000; Sn: 0.2500
mp-1217130,Ti2CuNi,"Cu, Ni, Ti",3,0.05710765999999978,Orthorhombic,25,Pmm2,0.0,True,True,0.18253424336271806,Ti: 0.5000; Cu: 0.2500; Ni: 0.2500
mp-1228128,Ba3SrSn12,"Ba, Sn, Sr",3,0.02163531531250129,Orthorhombic,25,Pmm2,0.0,True,True,0.4570130605354731,Ba: 0.1875; Sr: 0.0625; Sn: 0.7500
mp-1227571,Ca4GaSn3,"Ca, Ga, Sn",3,0.007253174630680093,Orthorhombic,25,Pmm2,0.0,True,True,0.46353094556890156,Ca: 0.5000; Ga: 0.1250; Sn: 0.3750
mp-1227017,Ca4ZnAg3,"Ag, Ca, Zn",3,0.005722444843749841,Orthorhombic,25,Pmm2,0.0,True,True,0.438463225367875,Ca: 0.5000; Zn: 0.1250; Ag: 0.3750
mp-1223291,La2Cu3Ni,"Cu, La, Ni",3,0.004117646388888119,Orthorhombic,25,Pmm2,0.0,True,True,0.3783186487605388,La: 0.3333; Cu: 0.5000; Ni: 0.1667
mp-1216215,Y4NiSn8,"Ni, Sn, Y",3,0.02337091762820709,Orthorhombic,25,Pmm2,0.0,True,True,0.3392264084840945,Y: 0.3077; Ni: 0.0769; Sn: 0.6154
mp-1217097,Ti2NiPd,"Ni, Pd, Ti",3,0.054076739374997906,Orthorhombic,25,Pmm2,0.0,True,True,0.2771619562638423,Ti: 0.5000; Ni: 0.2500; Pd: 0.2500
mp-1216173,Y2In3Cu,"Cu, In, Y",3,0.04619207513888668,Orthorhombic,25,Pmm2,0.0,True,True,0.28134597128012256,Y: 0.3333; In: 0.5000; Cu: 0.1667
mp-1218328,Sr4GaSn3,"Ga, Sn, Sr",3,0.009047041093751318,Orthorhombic,25,Pmm2,0.0,True,True,0.48841420689820236,Sr: 0.5000; Ga: 0.1250; Sn: 0.3750
mp-1217370,Ti(NbNi4)3,"Nb, Ni, Ti",3,0.016667490781251182,Orthorhombic,25,Pmm2,0.0,True,True,0.1612106971912499,Ti: 0.1667; Nb: 0.1667; Ni: 0.6667
mp-1195666,La(Al10V)2,"Al, La, V",3,0.0,Cubic,227,Fd-3m,0.0,False,True,0.1415661408042976,La: 0.0833; Al: 0.8333; V: 0.0833
mp-570883,Ca21(Zn18Ni)2,"Ca, Ni, Zn",3,0.007699869632767253,Cubic,227,Fd-3m,0.0,False,True,0.3338336973704122,Ca: 0.5250; Zn: 0.4500; Ni: 0.0250
mp-1200087,La(TiAl10)2,"Al, La, Ti",3,0.0,Cubic,227,Fd-3m,0.0,False,True,0.14052480998820893,La: 0.0833; Ti: 0.0833; Al: 0.8333
mp-1195833,Y(Cd10Ni)2,"Cd, Ni, Y",3,0.009773773709770284,Cubic,227,Fd-3m,0.0,False,True,0.14834971819618964,Y: 0.0833; Cd: 0.8333; Ni: 0.0833
mp-1191806,Mg3TiNi2,"Mg, Ni, Ti",3,0.0,Cubic,227,Fd-3m,0.0,False,True,0.2683540364684103,Mg: 0.5000; Ti: 0.1667; Ni: 0.3333
mp-1204650,Y(Al10Cr)2,"Al, Cr, Y",3,0.013621902686328013,Cubic,227,Fd-3m,0.0,False,True,0.10991158062531702,Y: 0.0833; Al: 0.8333; Cr: 0.0833
mp-1195710,Zr(Zn10Cu)2,"Cu, Zn, Zr",3,0.0,Cubic,227,Fd-3m,0.0,False,True,0.11707962627583367,Zr: 0.0833; Zn: 0.8333; Cu: 0.0833
mp-1205144,Mg3(Al9W)2,"Al, Mg, W",3,0.0,Cubic,227,Fd-3m,0.026500000000000412,False,False,0.25279502654084585,Mg: 0.2308; Al: 0.6923; W: 0.0769
mp-1198942,Mg3(TaAl9)2,"Al, Mg, Ta",3,0.0,Cubic,227,Fd-3m,0.0,False,True,0.12515552455023227,Mg: 0.2308; Ta: 0.0769; Al: 0.6923
mp-1191450,Hf3AlAu2,"Al, Au, Hf",3,0.08421179273148738,Cubic,227,Fd-3m,0.0,False,True,0.5588604476969183,Hf: 0.5000; Al: 0.1667; Au: 0.3333
mp-1200279,Mg11(Al2Cu)6,"Al, Cu, Mg",3,0.020496077413793223,Cubic,227,Fd-3m,0.0,False,True,0.17463226669613083,Mg: 0.7857; Al: 0.1429; Cu: 0.0714
mp-684027,Mg3(MnAl9)2,"Al, Mg, Mn",3,0.010448423913041793,Cubic,227,Fd-3m,0.0,False,True,0.12487153161663402,Mg: 0.2308; Mn: 0.0769; Al: 0.6923
mp-1191176,Zr3AlAu2,"Al, Au, Zr",3,0.02425866250000297,Cubic,227,Fd-3m,0.0,False,True,0.54644304369257,Zr: 0.5000; Al: 0.1667; Au: 0.3333
mp-3778,Mg3(Al9Cr)2,"Al, Cr, Mg",3,0.0,Cubic,227,Fd-3m,0.0,False,True,0.12917581249035898,Mg: 0.2308; Al: 0.6923; Cr: 0.0769
mp-542680,Na3In2Au,"Au, In, Na",3,0.0,Cubic,227,Fd-3m,0.0,False,True,0.607053448131949,Na: 0.5000; In: 0.3333; Au: 0.1667
mp-640442,Na17In12Ga29,"Ga, In, Na",3,0.011605136969496055,Cubic,227,Fd-3m,0.0,False,True,0.3967324925314312,Na: 0.2931; In: 0.2069; Ga: 0.5000
mp-1204376,La(Cd10Ni)2,"Cd, La, Ni",3,0.004097867869564897,Cubic,227,Fd-3m,0.0,False,True,0.1791395328290833,La: 0.0833; Cd: 0.8333; Ni: 0.0833
mp-1191089,Mg3MnNi2,"Mg, Mn, Ni",3,0.00023017823834692308,Cubic,227,Fd-3m,0.0,False,True,0.2683281572999747,Mg: 0.5000; Mn: 0.1667; Ni: 0.3333
mp-684031,Mg3(TiAl9)2,"Al, Mg, Ti",3,0.0,Cubic,227,Fd-3m,0.0,False,True,0.12481465548905736,Mg: 0.2308; Ti: 0.0769; Al: 0.6923
mp-1195250,Zr(Zn10Co)2,"Co, Zn, Zr",3,0.0,Cubic,227,Fd-3m,0.0,False,True,0.11351394921623799,Zr: 0.0833; Zn: 0.8333; Co: 0.0833
mp-1201475,Mg3(Al9Mo)2,"Al, Mg, Mo",3,0.0,Cubic,227,Fd-3m,0.0,False,True,0.20811921936105668,Mg: 0.2308; Al: 0.6923; Mo: 0.0769
mp-1201511,Mg3(Al9V)2,"Al, Mg, V",3,0.0,Cubic,227,Fd-3m,0.0,False,True,0.12734893591738386,Mg: 0.2308; Al: 0.6923; V: 0.0769
mp-640315,Y(Zn10Ru)2,"Ru, Y, Zn",3,0.0,Cubic,227,Fd-3m,0.0,False,True,0.20128752238195663,Y: 0.0833; Zn: 0.8333; Ru: 0.0833
mp-1196837,Ca(Al10Cr)2,"Al, Ca, Cr",3,0.005283065605587112,Cubic,227,Fd-3m,0.0,False,True,0.17040800711495013,Ca: 0.0833; Al: 0.8333; Cr: 0.0833
mp-1195553,Zr(Zn10Fe)2,"Fe, Zn, Zr",3,0.0,Cubic,227,Fd-3m,0.0,False,True,0.10534335395373653,Zr: 0.0833; Zn: 0.8333; Fe: 0.0833
mp-1192282,Zr3ZnCu2,"Cu, Zn, Zr",3,0.039722273237179806,Cubic,227,Fd-3m,0.0,False,True,0.2572072229848056,Zr: 0.5000; Zn: 0.1667; Cu: 0.3333
mp-1195444,Zr(Zn10Ni)2,"Ni, Zn, Zr",3,0.0,Cubic,227,Fd-3m,0.0,False,True,0.11891873976235477,Zr: 0.0833; Zn: 0.8333; Ni: 0.0833
mp-542681,Na3In2Ag,"Ag, In, Na",3,0.0,Cubic,227,Fd-3m,0.0,False,True,0.4527692569068708,Na: 0.5000; In: 0.3333; Ag: 0.1667
mp-1200867,La(Al10Cr)2,"Al, Cr, La",3,0.0,Cubic,227,Fd-3m,0.0,False,True,0.1428771811343186,La: 0.0833; Al: 0.8333; Cr: 0.0833
mp-1216144,Y6CoNi,"Co, Ni, Y",3,0.01071996906250039,Orthorhombic,26,Pmc2_1,0.0,True,True,0.2923797829878119,Y: 0.7500; Co: 0.1250; Ni: 0.1250
mp-1222164,Mg4HgAu,"Au, Hg, Mg",3,0.006108795925925836,Orthorhombic,26,Pmc2_1,0.0,True,True,0.47864391775097276,Mg: 0.6667; Hg: 0.1667; Au: 0.1667
mp-1226984,La10Ga3Co7,"Co, Ga, La",3,0.0,Orthorhombic,26,Pmc2_1,0.0,True,True,0.3801772612874157,La: 0.5000; Ga: 0.1500; Co: 0.3500
mp-1218336,SrCaZn2,"Ca, Sr, Zn",3,0.005259109375000293,Orthorhombic,26,Pmc2_1,0.0,True,True,0.33796264586489433,Sr: 0.2500; Ca: 0.2500; Zn: 0.5000
mp-1217060,Y10Ga3Co7,"Co, Ga, Y",3,0.0,Orthorhombic,26,Pmc2_1,0.0,True,True,0.32030415233025,Y: 0.5000; Ga: 0.1500; Co: 0.3500
mp-1220131,NiBi6Rh,"Bi, Ni, Rh",3,0.010188662721357211,Orthorhombic,26,Pmc2_1,0.0,True,True,0.09803538901845593,Ni: 0.1250; Bi: 0.7500; Rh: 0.1250
mp-675690,Ba2PtAu,"Au, Ba, Pt",3,0.002917088750000296,Orthorhombic,26,Pmc2_1,0.0,True,True,0.7655390257851,Ba: 0.5000; Pt: 0.2500; Au: 0.2500
mp-1222588,Mg8Ni3Pd,"Mg, Ni, Pd",3,0.0031184607638898854,Monoclinic,3,P2,0.0,True,True,0.32520399580707626,Mg: 0.6667; Ni: 0.2500; Pd: 0.0833
mp-1216267,Y3(FeRu2)2,"Fe, Ru, Y",3,0.0,Triclinic,2,P-1,0.0,True,True,0.44573597067721116,Y: 0.5000; Fe: 0.1667; Ru: 0.3333
mp-1215874,Zr3(V2Fe)2,"Fe, V, Zr",3,0.0,Triclinic,2,P-1,0.0,True,True,0.19507833184532705,Zr: 0.5000; V: 0.3333; Fe: 0.1667
mp-581533,Cs7(In2Bi3)2,"Bi, Cs, In",3,0.0,Triclinic,2,P-1,0.3083,False,False,0.564197438845658,Cs: 0.5833; In: 0.1667; Bi: 0.2500
mp-1222214,Mg3(AlCu2)2,"Al, Cu, Mg",3,0.003828677222222243,Triclinic,2,P-1,0.0,True,True,0.26493185706684813,Mg: 0.5000; Al: 0.1667; Cu: 0.3333
mp-1216185,Y3(AlFe2)2,"Al, Fe, Y",3,0.015019371452989816,Triclinic,2,P-1,0.0,True,True,0.27817360686369147,Y: 0.5000; Al: 0.1667; Fe: 0.3333
mp-1216016,Zr3(VNi2)2,"Ni, V, Zr",3,0.07675690287037007,Triclinic,2,P-1,0.0,True,True,0.2606189214585583,Zr: 0.5000; V: 0.1667; Ni: 0.3333
mp-1219441,Sc3(MnNi2)2,"Mn, Ni, Sc",3,0.016272747681991717,Triclinic,2,P-1,0.0,True,True,0.24622144504490254,Sc: 0.5000; Mn: 0.1667; Ni: 0.3333
mp-607525,Ba11(Cd4Bi7)2,"Ba, Bi, Cd",3,0.0,Triclinic,2,P-1,0.0,True,True,0.5173248495867949,Ba: 0.5000; Cd: 0.1818; Bi: 0.3182
mp-680539,K11(In2Bi3)3,"Bi, In, K",3,0.0,Triclinic,2,P-1,0.03130000000000033,False,False,0.5159215056575952,K: 0.6875; In: 0.1250; Bi: 0.1875
mp-680436,Rb2LiSn4,"Li, Rb, Sn",3,0.0,Triclinic,2,P-1,0.9014000000000002,False,False,0.5400226752608804,Rb: 0.2857; Li: 0.1429; Sn: 0.5714
mp-1215885,Zr3(MnNi2)2,"Mn, Ni, Zr",3,0.043780823888889486,Triclinic,2,P-1,0.0,True,True,0.2594224354214569,Zr: 0.5000; Mn: 0.1667; Ni: 0.3333
mp-1224216,HfZrNb2,"Hf, Nb, Zr",3,0.08511833000000024,Orthorhombic,35,Cmm2,0.0,True,True,0.1428941916244324,Hf: 0.2500; Zr: 0.2500; Nb: 0.5000
mp-1215519,ZnCdAg2,"Ag, Cd, Zn",3,0.09264560207236983,Orthorhombic,35,Cmm2,0.0,True,True,0.1307669683062202,Zn: 0.2500; Cd: 0.2500; Ag: 0.5000
mp-1216349,VCrFe2,"Cr, Fe, V",3,0.08149657250000075,Orthorhombic,35,Cmm2,0.0,True,True,0.09310612224768045,V: 0.2500; Cr: 0.2500; Fe: 0.5000
mp-568476,BiPd2Pb,"Bi, Pb, Pd",3,0.00023625812499972199,Orthorhombic,36,Cmc2_1,0.0,False,True,0.11031205736455107,Bi: 0.2500; Pd: 0.5000; Pb: 0.2500
mp-30864,Y2Sn5Rh3,"Rh, Sn, Y",3,0.0,Orthorhombic,36,Cmc2_1,0.0,False,True,0.37085846356797625,Y: 0.2000; Sn: 0.5000; Rh: 0.3000
mp-684013,Ba2In13Ir4,"Ba, In, Ir",3,0.0,Orthorhombic,36,Cmc2_1,0.0,False,True,0.34711394187306754,Ba: 0.1053; In: 0.6842; Ir: 0.2105
mp-1219835,Rb4Sn21Hg2,"Hg, Rb, Sn",3,0.0,Orthorhombic,40,Ama2,0.21260000000000012,True,False,0.40635014329697977,Rb: 0.1481; Sn: 0.7778; Hg: 0.0741
mp-1226308,Cs4Sn21Hg2,"Cs, Hg, Sn",3,0.0,Orthorhombic,40,Ama2,0.24110000000000031,True,False,0.4170041431669251,Cs: 0.1481; Sn: 0.7778; Hg: 0.0741
mp-1224491,K4Sn21Hg2,"Hg, K, Sn",3,0.0,Orthorhombic,40,Ama2,0.19419999999999948,True,False,0.40635014329697977,K: 0.1481; Sn: 0.7778; Hg: 0.0741
mp-1224111,K4Zn2Sn21,"K, Sn, Zn",3,0.0,Orthorhombic,40,Ama2,0.42079999999999984,True,False,0.4035402319383619,K: 0.1481; Zn: 0.0741; Sn: 0.7778
mp-1217902,TaNbMo,"Mo, Nb, Ta",3,0.009715673333325014,Orthorhombic,42,Fmm2,0.0,True,True,0.29044027881055956,Ta: 0.3333; Nb: 0.3333; Mo: 0.3333
mp-1217897,TaMoW,"Mo, Ta, W",3,0.022693173333337313,Orthorhombic,42,Fmm2,0.0,True,True,0.36745370078721784,Ta: 0.3333; Mo: 0.3333; W: 0.3333
mp-1217901,TaNbW,"Nb, Ta, W",3,0.020959626666659403,Orthorhombic,42,Fmm2,0.0,True,True,0.3840138886377244,Ta: 0.3333; Nb: 0.3333; W: 0.3333
mp-1217987,Ta3Co2Mo,"Co, Mo, Ta",3,0.015449960888888725,Orthorhombic,42,Fmm2,0.0,True,True,0.25440562537456246,Ta: 0.5000; Co: 0.3333; Mo: 0.1667
mp-1216241,VReMo,"Mo, Re, V",3,0.062132650416668156,Orthorhombic,42,Fmm2,0.0,True,True,0.21638443156156653,V: 0.3333; Re: 0.3333; Mo: 0.3333
mp-1224087,La3InPb4,"In, La, Pb",3,0.0,Orthorhombic,42,Fmm2,0.0,True,True,0.5694295391003175,La: 0.3750; In: 0.1250; Pb: 0.5000
mp-1216348,VCrMo,"Cr, Mo, V",3,0.06364379666666764,Orthorhombic,42,Fmm2,0.0,True,True,0.24308206204672722,V: 0.3333; Cr: 0.3333; Mo: 0.3333
mp-1220369,NbVRe,"Nb, Re, V",3,0.04236354222222616,Orthorhombic,42,Fmm2,0.0,True,True,0.13490737563232036,Nb: 0.3333; V: 0.3333; Re: 0.3333
mp-1217905,TaNbV,"Nb, Ta, V",3,0.09800816333333628,Orthorhombic,42,Fmm2,0.0,True,True,0.0555777733351102,Ta: 0.3333; Nb: 0.3333; V: 0.3333
mp-1220357,NbReMo,"Mo, Nb, Re",3,0.03231535333333113,Orthorhombic,42,Fmm2,0.0,True,True,0.22881336402307353,Nb: 0.3333; Re: 0.3333; Mo: 0.3333
mp-1220335,NbMoW,"Mo, Nb, W",3,0.005739143333322261,Orthorhombic,42,Fmm2,0.0,True,True,0.3216623488483951,Nb: 0.3333; Mo: 0.3333; W: 0.3333