material_id,formula,elements,num_elements,energy_above_hull,crystal_system,spacegroup_number,spacegroup_symbol,band_gap,theoretical,is_metal,electronegativity_difference,atomic_concentrations
mp-864618,BaHg2Pb,"Ba, Hg, Pb",3,0.0,Cubic,225,Fm-3m,0.0,True,True,0.5451834553615874,Ba: 0.2500; Hg: 0.5000; Pb: 0.2500
mp-865879,Li2AgAu,"Ag, Au, Li",3,0.0,Cubic,225,Fm-3m,0.0,True,True,0.6635275050817412,Li: 0.5000; Ag: 0.2500; Au: 0.2500
mp-19963,TiFe2Sn,"Fe, Sn, Ti",3,0.0,Cubic,225,Fm-3m,0.04870000000000019,False,False,0.15378556499229695,Ti: 0.2500; Fe: 0.5000; Sn: 0.2500
mp-867242,Sc2ZnGa,"Ga, Sc, Zn",3,0.0,Cubic,225,Fm-3m,0.0,True,True,0.193455421221531,Sc: 0.5000; Zn: 0.2500; Ga: 0.2500
mp-22712,YPd2Pb,"Pb, Pd, Y",3,0.017725973000001005,Cubic,225,Fm-3m,0.0,False,True,0.4462832620656975,Y: 0.2500; Pd: 0.5000; Pb: 0.2500
mp-862602,ScAlCo2,"Al, Co, Sc",3,0.0,Cubic,225,Fm-3m,0.0,True,True,0.21637640814099848,Sc: 0.2500; Al: 0.2500; Co: 0.5000
mp-984352,Al2CoOs,"Al, Co, Os",3,0.0,Cubic,225,Fm-3m,0.0,True,True,0.24295061226512685,Al: 0.5000; Co: 0.2500; Os: 0.2500
mp-11305,Li2CdPb,"Cd, Li, Pb",3,0.0,Cubic,225,Fm-3m,0.0,False,True,0.5625166664197605,Li: 0.5000; Cd: 0.2500; Pb: 0.2500
mp-866096,HfZnCo2,"Co, Hf, Zn",3,0.0009406215441174481,Cubic,225,Fm-3m,0.0,True,True,0.23731571797923537,Hf: 0.2500; Zn: 0.2500; Co: 0.5000
mp-867872,LiCdAg2,"Ag, Cd, Li",3,0.01247786624999847,Cubic,225,Fm-3m,0.0,True,True,0.38925409439079767,Li: 0.2500; Cd: 0.2500; Ag: 0.5000
mp-866160,Y2AgIr,"Ag, Ir, Y",3,0.01625410546875017,Cubic,225,Fm-3m,0.0,True,True,0.4331498008772485,Y: 0.5000; Ag: 0.2500; Ir: 0.2500
mp-980947,SrCaHg2,"Ca, Hg, Sr",3,0.018665545000002837,Cubic,225,Fm-3m,0.0,True,True,0.5128047874191504,Sr: 0.2500; Ca: 0.2500; Hg: 0.5000
mp-623134,ZrInCu2,"Cu, In, Zr",3,0.0,Cubic,225,Fm-3m,0.0,False,True,0.23466731770743016,Zr: 0.2500; In: 0.2500; Cu: 0.5000
mp-973088,MgInAg2,"Ag, In, Mg",3,0.0,Cubic,225,Fm-3m,0.0,False,True,0.25430051120672165,Mg: 0.2500; In: 0.2500; Ag: 0.5000
mp-972869,Sc2GaPt,"Ga, Pt, Sc",3,0.005126592500000804,Cubic,225,Fm-3m,0.0,True,True,0.3806819538670042,Sc: 0.5000; Ga: 0.2500; Pt: 0.2500
mp-980749,VFeRu2,"Fe, Ru, V",3,0.014310354166662265,Cubic,225,Fm-3m,0.0,True,True,0.24540782383616064,V: 0.2500; Fe: 0.2500; Ru: 0.5000
mp-865935,Li2MgSn,"Li, Mg, Sn",3,0.03690549249999897,Cubic,225,Fm-3m,0.0,True,True,0.40008592827041545,Li: 0.5000; Mg: 0.2500; Sn: 0.2500
mp-1184972,Li2InBi,"Bi, In, Li",3,0.005973699305555247,Cubic,225,Fm-3m,0.00039999999999995595,True,False,0.46776062254106,Li: 0.5000; In: 0.2500; Bi: 0.2500
mp-867846,TaTiRe2,"Re, Ta, Ti",3,0.0,Cubic,225,Fm-3m,0.0,True,True,0.19052558883257645,Ta: 0.2500; Ti: 0.2500; Re: 0.5000
mp-1186208,Nb2ReTc,"Nb, Re, Tc",3,0.0,Cubic,225,Fm-3m,0.0,True,True,0.1499999999999999,Nb: 0.5000; Re: 0.2500; Tc: 0.2500
mp-1100781,ZrZnNi2,"Ni, Zn, Zr",3,0.009448021250000771,Cubic,225,Fm-3m,0.0,True,True,0.23853720883753118,Zr: 0.2500; Zn: 0.2500; Ni: 0.5000
mp-865501,V2TcRu,"Ru, Tc, V",3,0.0,Cubic,225,Fm-3m,0.0,True,True,0.23526580712037196,V: 0.5000; Tc: 0.2500; Ru: 0.2500
mp-1186940,Sc2CoCu,"Co, Cu, Sc",3,0.022116357499998074,Cubic,225,Fm-3m,0.0,True,True,0.26509432283623113,Sc: 0.5000; Co: 0.2500; Cu: 0.2500
mp-1185546,CsRb2Bi,"Bi, Cs, Rb",3,0.001246811666665737,Cubic,225,Fm-3m,0.18720000000000003,True,False,0.5240884944358157,Cs: 0.2500; Rb: 0.5000; Bi: 0.2500
mp-867245,LaAgHg2,"Ag, Hg, La",3,0.0,Cubic,225,Fm-3m,0.0,True,True,0.38068195386700426,La: 0.2500; Ag: 0.2500; Hg: 0.5000
mp-1183464,Ca2ZnHg,"Ca, Hg, Zn",3,0.013920215000001956,Cubic,225,Fm-3m,0.0,True,True,0.43066082942380535,Ca: 0.5000; Zn: 0.2500; Hg: 0.2500
mp-30648,LiMg2Ga,"Ga, Li, Mg",3,0.005975480750000539,Cubic,225,Fm-3m,0.0,False,True,0.29651096101156194,Li: 0.2500; Mg: 0.5000; Ga: 0.2500
mp-977399,LiMgPd2,"Li, Mg, Pd",3,0.0,Cubic,225,Fm-3m,0.0,True,True,0.540248785283225,Li: 0.2500; Mg: 0.2500; Pd: 0.5000
mp-1187427,Ti2FeOs,"Fe, Os, Ti",3,0.0,Cubic,225,Fm-3m,0.0,True,True,0.27114341223787836,Ti: 0.5000; Fe: 0.2500; Os: 0.2500
mp-1186939,Sc2CoPt,"Co, Pt, Sc",3,0.005489926250000998,Cubic,225,Fm-3m,0.0,True,True,0.3867815921162742,Sc: 0.5000; Co: 0.2500; Pt: 0.2500
mp-21883,VGaFe2,"Fe, Ga, V",3,0.0,Cubic,225,Fm-3m,0.0,False,True,0.08411301920630368,V: 0.2500; Ga: 0.2500; Fe: 0.5000
mp-867216,TaFeRu2,"Fe, Ru, Ta",3,0.0,Cubic,225,Fm-3m,0.0,True,True,0.29183685510915175,Ta: 0.2500; Fe: 0.2500; Ru: 0.5000
mp-972183,ZrGaPd2,"Ga, Pd, Zr",3,0.02197881965277304,Cubic,225,Fm-3m,0.0,True,True,0.3578058132562969,Zr: 0.2500; Ga: 0.2500; Pd: 0.5000
mp-1184870,InAgAu2,"Ag, Au, In",3,0.02134589718748714,Cubic,225,Fm-3m,0.0,True,True,0.3465815199920504,In: 0.2500; Ag: 0.2500; Au: 0.5000
mp-1187424,Ti2OsRh,"Os, Rh, Ti",3,0.015226427499998252,Cubic,225,Fm-3m,0.0,True,True,0.3511409973215887,Ti: 0.5000; Os: 0.2500; Rh: 0.2500
mp-867771,TaCuRh2,"Cu, Rh, Ta",3,0.0,Cubic,225,Fm-3m,0.0,True,True,0.3226453160980335,Ta: 0.2500; Cu: 0.2500; Rh: 0.5000
mp-30661,ScGaPd2,"Ga, Pd, Sc",3,0.0,Cubic,225,Fm-3m,0.0,False,True,0.3462206666275138,Sc: 0.2500; Ga: 0.2500; Pd: 0.5000
mp-1183537,Cd2AgPt,"Ag, Cd, Pt",3,0.0,Cubic,225,Fm-3m,0.0,True,True,0.24159625411003371,Cd: 0.5000; Ag: 0.2500; Pt: 0.2500
mp-861896,LiHg2Pd,"Hg, Li, Pd",3,0.0,Cubic,225,Fm-3m,0.0,True,True,0.4775719841029204,Li: 0.2500; Hg: 0.5000; Pd: 0.2500
mp-10895,Mn2AlV,"Al, Mn, V",3,0.0,Cubic,225,Fm-3m,0.0,False,True,0.03570714214271421,Mn: 0.5000; Al: 0.2500; V: 0.2500
mp-1193188,Hf6Ga16Co7,"Co, Ga, Hf",3,0.06468239528735609,Cubic,225,Fm-3m,0.0,False,True,0.21712421580556035,Hf: 0.2069; Ga: 0.5517; Co: 0.2414
mp-1187809,YAlAu2,"Al, Au, Y",3,0.03169731520833352,Cubic,225,Fm-3m,0.0,True,True,0.5791534770680393,Y: 0.2500; Al: 0.2500; Au: 0.5000
mp-1184611,Hf2NiIr,"Hf, Ir, Ni",3,0.020964980000000466,Cubic,225,Fm-3m,0.0,True,True,0.39117611123380225,Hf: 0.5000; Ni: 0.2500; Ir: 0.2500
mp-862815,LiScAu2,"Au, Li, Sc",3,0.0,Cubic,225,Fm-3m,0.0,True,True,0.6980508577460528,Li: 0.2500; Sc: 0.2500; Au: 0.5000
mp-1187210,Ta2TcOs,"Os, Ta, Tc",3,0.0,Cubic,225,Fm-3m,0.0,True,True,0.29474565306378997,Ta: 0.5000; Tc: 0.2500; Os: 0.2500
mp-865780,TiMn2Ga,"Ga, Mn, Ti",3,0.03382918218749964,Cubic,225,Fm-3m,0.0,True,True,0.11409973707244028,Ti: 0.2500; Mn: 0.5000; Ga: 0.2500
mp-11490,Li2ZnSn,"Li, Sn, Zn",3,0.04711050750000023,Cubic,225,Fm-3m,0.0,False,True,0.4268123123809809,Li: 0.5000; Zn: 0.2500; Sn: 0.2500
mp-865519,YTaRu2,"Ru, Ta, Y",3,0.0,Cubic,225,Fm-3m,0.0,True,True,0.43150898020782846,Y: 0.2500; Ta: 0.2500; Ru: 0.5000
mp-10883,AlCrCo2,"Al, Co, Cr",3,0.05759880625000058,Cubic,225,Fm-3m,0.0,False,True,0.12376893794486557,Al: 0.2500; Cr: 0.2500; Co: 0.5000
mp-1188022,ZrMnRh2,"Mn, Rh, Zr",3,0.0,Cubic,225,Fm-3m,0.0,True,True,0.4271416626834707,Zr: 0.2500; Mn: 0.2500; Rh: 0.5000
mp-1185980,MgSnRu2,"Mg, Ru, Sn",3,0.004328620029761865,Cubic,225,Fm-3m,0.0,True,True,0.36416857360294014,Mg: 0.2500; Sn: 0.2500; Ru: 0.5000
mp-867850,ScMnRh2,"Mn, Rh, Sc",3,0.0,Cubic,225,Fm-3m,0.0,True,True,0.4179339062579152,Sc: 0.2500; Mn: 0.2500; Rh: 0.5000
mp-862774,LiInPt2,"In, Li, Pt",3,0.0,Cubic,225,Fm-3m,0.0,True,True,0.5315072906367324,Li: 0.2500; In: 0.2500; Pt: 0.5000
mp-866082,MgSc2Tc,"Mg, Sc, Tc",3,0.017487309062500955,Cubic,225,Fm-3m,0.0,True,True,0.24190649019817548,Mg: 0.2500; Sc: 0.5000; Tc: 0.2500
mp-13915,LiNi2Sn,"Li, Ni, Sn",3,0.0,Cubic,225,Fm-3m,0.0,False,True,0.41042660732462266,Li: 0.2500; Ni: 0.5000; Sn: 0.2500
mp-1207415,Zr6Be15Co8,"Be, Co, Zr",3,0.0,Cubic,225,Fm-3m,0.0,True,True,0.192721296738085,Zr: 0.2069; Be: 0.5172; Co: 0.2759
mp-972961,Sc2NiRh,"Ni, Rh, Sc",3,0.02037354749999931,Cubic,225,Fm-3m,0.0,True,True,0.39008813106783946,Sc: 0.5000; Ni: 0.2500; Rh: 0.2500
mp-1183038,ZrZnIr2,"Ir, Zn, Zr",3,0.0,Cubic,225,Fm-3m,0.0,True,True,0.37259227045122667,Zr: 0.2500; Zn: 0.2500; Ir: 0.5000
mp-861627,Ti2AlMo,"Al, Mo, Ti",3,0.0,Cubic,225,Fm-3m,0.0,True,True,0.259939896899264,Ti: 0.5000; Al: 0.2500; Mo: 0.2500
mp-1187876,YRh2Pb,"Pb, Rh, Y",3,0.008212606250001642,Cubic,225,Fm-3m,0.0,True,True,0.46665699394737453,Y: 0.2500; Rh: 0.5000; Pb: 0.2500
mp-979435,YMg2Sc,"Mg, Sc, Y",3,0.009669714375000638,Cubic,225,Fm-3m,0.0,True,True,0.05049752469181044,Y: 0.2500; Mg: 0.5000; Sc: 0.2500
mp-1193281,Sc6Ga16Ir7,"Ga, Ir, Sc",3,0.0,Cubic,225,Fm-3m,0.0,False,True,0.2803734557211298,Sc: 0.2069; Ga: 0.5517; Ir: 0.2414
mp-1184999,LaMgAu2,"Au, La, Mg",3,0.0,Cubic,225,Fm-3m,0.0,True,True,0.6716165200469685,La: 0.2500; Mg: 0.2500; Au: 0.5000
mp-5778,AlVFe2,"Al, Fe, V",3,0.0,Cubic,225,Fm-3m,0.0,False,True,0.10523782589924598,Al: 0.2500; V: 0.2500; Fe: 0.5000
mp-1185430,LiZnCu2,"Cu, Li, Zn",3,0.010973245000002407,Cubic,225,Fm-3m,0.0,True,True,0.37638909389088304,Li: 0.2500; Zn: 0.2500; Cu: 0.5000
mp-1188017,ZrScTc2,"Sc, Tc, Zr",3,0.015365562291668411,Cubic,225,Fm-3m,0.0,True,True,0.2777026287236042,Zr: 0.2500; Sc: 0.2500; Tc: 0.5000
mp-865471,VGaTc2,"Ga, Tc, V",3,0.0,Cubic,225,Fm-3m,0.0,True,True,0.11022703842524302,V: 0.2500; Ga: 0.2500; Tc: 0.5000
mp-1185986,MnBeIr2,"Be, Ir, Mn",3,0.0,Cubic,225,Fm-3m,0.0,True,True,0.3200781154655845,Mn: 0.2500; Be: 0.2500; Ir: 0.5000
mp-865730,TiZnAu2,"Au, Ti, Zn",3,0.0,Cubic,225,Fm-3m,0.0,True,True,0.4740978274575829,Ti: 0.2500; Zn: 0.2500; Au: 0.5000
mp-1187800,Zn2CuRh,"Cu, Rh, Zn",3,0.0,Cubic,225,Fm-3m,0.0,True,True,0.2577789750930048,Zn: 0.5000; Cu: 0.2500; Rh: 0.2500
mp-1183421,Be2NiRu,"Be, Ni, Ru",3,0.004523848750000781,Cubic,225,Fm-3m,0.0,True,True,0.2632845418933668,Be: 0.5000; Ni: 0.2500; Ru: 0.2500
mp-977586,MgSc2In,"In, Mg, Sc",3,0.0,Cubic,225,Fm-3m,0.0,True,True,0.19018083499658947,Mg: 0.2500; Sc: 0.5000; In: 0.2500
mp-1186954,Sc2IrOs,"Ir, Os, Sc",3,0.0035059564236110674,Cubic,225,Fm-3m,0.0,True,True,0.42000000000000004,Sc: 0.5000; Ir: 0.2500; Os: 0.2500
mp-1185985,MnBe2Ru,"Be, Mn, Ru",3,0.023721130517240674,Cubic,225,Fm-3m,0.0,True,True,0.2758056380859536,Mn: 0.2500; Be: 0.5000; Ru: 0.2500
mp-972971,LaTlHg2,"Hg, La, Tl",3,0.0054820150000036705,Cubic,225,Fm-3m,0.0,True,True,0.36905284174491865,La: 0.2500; Tl: 0.2500; Hg: 0.5000
mp-581707,ZrInAu2,"Au, In, Zr",3,0.02952319083333066,Cubic,225,Fm-3m,0.0,False,True,0.5175603829506273,Zr: 0.2500; In: 0.2500; Au: 0.5000
mp-867271,Be2CoNi,"Be, Co, Ni",3,0.0,Cubic,225,Fm-3m,0.0,True,True,0.1628457859448625,Be: 0.5000; Co: 0.2500; Ni: 0.2500
mp-866153,TiAlRh2,"Al, Rh, Ti",3,0.0,Cubic,225,Fm-3m,0.0,True,True,0.3533677263135386,Ti: 0.2500; Al: 0.2500; Rh: 0.5000
mp-864983,MnVRu2,"Mn, Ru, V",3,0.0,Cubic,225,Fm-3m,0.0,True,True,0.30630866784993216,Mn: 0.2500; V: 0.2500; Ru: 0.5000
mp-3498,HfGaNi2,"Ga, Hf, Ni",3,0.008806291032259495,Cubic,225,Fm-3m,0.0,False,True,0.25301926804099323,Hf: 0.2500; Ga: 0.2500; Ni: 0.5000
mp-1187418,Ti2AlW,"Al, Ti, W",3,0.0,Cubic,225,Fm-3m,0.0,True,True,0.34614845081265344,Ti: 0.5000; Al: 0.2500; W: 0.2500
mp-861894,Li2LaSn,"La, Li, Sn",3,0.0,Cubic,225,Fm-3m,0.0,True,True,0.40996951106149343,Li: 0.5000; La: 0.2500; Sn: 0.2500
mp-867795,ScNbTc2,"Nb, Sc, Tc",3,0.0,Cubic,225,Fm-3m,0.0,True,True,0.2264950330581224,Sc: 0.2500; Nb: 0.2500; Tc: 0.5000
mp-1187701,Y2AgHg,"Ag, Hg, Y",3,0.0,Cubic,225,Fm-3m,0.0,True,True,0.3733212423637316,Y: 0.5000; Ag: 0.2500; Hg: 0.2500
mp-1185367,LiInHg2,"Hg, In, Li",3,0.0,Cubic,225,Fm-3m,0.0,True,True,0.41964270516714575,Li: 0.2500; In: 0.2500; Hg: 0.5000
mp-1194178,Ti6Al16Pd7,"Al, Pd, Ti",3,0.020043311293104438,Cubic,225,Fm-3m,0.0,False,True,0.26205263106989407,Ti: 0.2069; Al: 0.5517; Pd: 0.2414
mp-865003,Be2IrPd,"Be, Ir, Pd",3,0.0,Cubic,225,Fm-3m,0.0,True,True,0.31500000000000006,Be: 0.5000; Ir: 0.2500; Pd: 0.2500
mp-865984,BaTlHg2,"Ba, Hg, Tl",3,0.0,Cubic,225,Fm-3m,0.0,True,True,0.45317629020062383,Ba: 0.2500; Tl: 0.2500; Hg: 0.5000
mp-982667,LiAl2Os,"Al, Li, Os",3,0.02261172166666725,Cubic,225,Fm-3m,0.0,True,True,0.43145104009609253,Li: 0.2500; Al: 0.5000; Os: 0.2500
mp-865877,Ti2RePt,"Pt, Re, Ti",3,0.0691250500000038,Cubic,225,Fm-3m,0.0,True,True,0.3060637188560577,Ti: 0.5000; Re: 0.2500; Pt: 0.2500
mp-865280,NbAlFe2,"Al, Fe, Nb",3,0.0,Cubic,225,Fm-3m,0.32070000000000043,True,False,0.11255554184490428,Nb: 0.2500; Al: 0.2500; Fe: 0.5000
mp-866069,MgScRh2,"Mg, Rh, Sc",3,0.0,Cubic,225,Fm-3m,0.0,True,True,0.4728305721926194,Mg: 0.2500; Sc: 0.2500; Rh: 0.5000
mp-1185244,LiY2Ga,"Ga, Li, Y",3,0.016442154322918512,Cubic,225,Fm-3m,0.0,True,True,0.30621683493890406,Li: 0.2500; Y: 0.5000; Ga: 0.2500
mp-866173,Y2RuRh,"Rh, Ru, Y",3,0.0028095790624993455,Cubic,225,Fm-3m,0.0,True,True,0.5107837115648853,Y: 0.5000; Ru: 0.2500; Rh: 0.2500
mp-1186223,NbFeRu2,"Fe, Nb, Ru",3,0.032614899166667044,Cubic,225,Fm-3m,0.0,True,True,0.25577089357469907,Nb: 0.2500; Fe: 0.2500; Ru: 0.5000
mp-1187459,TiGaCu2,"Cu, Ga, Ti",3,0.0,Cubic,225,Fm-3m,0.0,True,True,0.14754236679679497,Ti: 0.2500; Ga: 0.2500; Cu: 0.5000
mp-1187091,Sr2TlZn,"Sr, Tl, Zn",3,0.013191636249999306,Cubic,225,Fm-3m,0.0,True,True,0.34266419421935523,Sr: 0.5000; Tl: 0.2500; Zn: 0.2500
mp-1183312,BaNa2Pb,"Ba, Na, Pb",3,0.05256451806034468,Cubic,225,Fm-3m,0.0,True,True,0.6122091146005587,Ba: 0.2500; Na: 0.5000; Pb: 0.2500
mp-865866,LiZrPt2,"Li, Pt, Zr",3,0.010696489289770739,Cubic,225,Fm-3m,0.0,True,True,0.5759503016754136,Li: 0.2500; Zr: 0.2500; Pt: 0.5000
mp-865187,MgFeRh2,"Fe, Mg, Rh",3,0.0,Cubic,225,Fm-3m,0.0,True,True,0.3997811901528134,Mg: 0.2500; Fe: 0.2500; Rh: 0.5000
mp-865529,Ti2NiIr,"Ir, Ni, Ti",3,0.0,Cubic,225,Fm-3m,0.0,True,True,0.2771619562638423,Ti: 0.5000; Ni: 0.2500; Ir: 0.2500
mp-1188020,Zr2TcNi,"Ni, Tc, Zr",3,0.0,Cubic,225,Fm-3m,0.0,True,True,0.28752173830860156,Zr: 0.5000; Tc: 0.2500; Ni: 0.2500
mp-974463,LaAg2Sn,"Ag, La, Sn",3,0.06078010813244017,Cubic,225,Fm-3m,0.0,True,True,0.36393680770155684,La: 0.2500; Ag: 0.5000; Sn: 0.2500
mp-861903,LiBiRh2,"Bi, Li, Rh",3,0.0,Cubic,225,Fm-3m,0.0,True,True,0.5360037313302958,Li: 0.2500; Bi: 0.2500; Rh: 0.5000
mp-1187079,Sr2CdHg,"Cd, Hg, Sr",3,0.008867520000000795,Cubic,225,Fm-3m,0.0,True,True,0.4607263287462526,Sr: 0.5000; Cd: 0.2500; Hg: 0.2500
mp-1185143,La2CdHg,"Cd, Hg, La",3,0.01215002250000019,Cubic,225,Fm-3m,0.0,True,True,0.3882895182721264,La: 0.5000; Cd: 0.2500; Hg: 0.2500
mp-1183039,ZrTaTc2,"Ta, Tc, Zr",3,0.0,Cubic,225,Fm-3m,0.0,True,True,0.2498374471531439,Zr: 0.2500; Ta: 0.2500; Tc: 0.5000
mp-862364,Sc2OsPt,"Os, Pt, Sc",3,0.0,Cubic,225,Fm-3m,0.0,True,True,0.440908153700972,Sc: 0.5000; Os: 0.2500; Pt: 0.2500
mp-977550,ZrScOs2,"Os, Sc, Zr",3,0.0,Cubic,225,Fm-3m,0.0,True,True,0.42763155870445296,Zr: 0.2500; Sc: 0.2500; Os: 0.5000
mp-865170,GaFeRh2,"Fe, Ga, Rh",3,0.0,Cubic,225,Fm-3m,0.0,True,True,0.2301086699800769,Ga: 0.2500; Fe: 0.2500; Rh: 0.5000
mp-864654,Zn2NiRh,"Ni, Rh, Zn",3,0.0,Cubic,225,Fm-3m,0.0,True,True,0.2581060828419198,Zn: 0.5000; Ni: 0.2500; Rh: 0.2500
mp-864631,LiNbRh2,"Li, Nb, Rh",3,0.0,Cubic,225,Fm-3m,0.0,True,True,0.5413640180137574,Li: 0.2500; Nb: 0.2500; Rh: 0.5000
mp-867144,CaMgHg2,"Ca, Hg, Mg",3,0.0,Cubic,225,Fm-3m,0.0,True,True,0.43648453580854385,Ca: 0.2500; Mg: 0.2500; Hg: 0.5000
mp-983602,CdAg2Au,"Ag, Au, Cd",3,0.018263051250006157,Cubic,225,Fm-3m,0.0,True,True,0.31443401533549137,Cd: 0.2500; Ag: 0.5000; Au: 0.2500
mp-4771,TiAlCu2,"Al, Cu, Ti",3,0.0,Cubic,225,Fm-3m,0.0,False,True,0.16437381178277755,Ti: 0.2500; Al: 0.2500; Cu: 0.5000
mp-865916,TiVRe2,"Re, Ti, V",3,0.0,Cubic,225,Fm-3m,0.0,True,True,0.1606821396422141,Ti: 0.2500; V: 0.2500; Re: 0.5000
mp-1184678,Hf2FeRh,"Fe, Hf, Rh",3,0.0,Cubic,225,Fm-3m,0.0,True,True,0.40965686861079226,Hf: 0.5000; Fe: 0.2500; Rh: 0.2500
mp-972337,Ti2IrW,"Ir, Ti, W",3,0.0,Cubic,225,Fm-3m,0.0,True,True,0.37429934544425797,Ti: 0.5000; Ir: 0.2500; W: 0.2500
mp-865000,HfScIr2,"Hf, Ir, Sc",3,0.00880948500000045,Cubic,225,Fm-3m,0.0,True,True,0.4355169342287393,Hf: 0.2500; Sc: 0.2500; Ir: 0.5000
mp-867909,ScCdRh2,"Cd, Rh, Sc",3,0.0,Cubic,225,Fm-3m,0.0,True,True,0.39511865306512667,Sc: 0.2500; Cd: 0.2500; Rh: 0.5000
mp-31169,ScAlAg2,"Ag, Al, Sc",3,0.0,Cubic,225,Fm-3m,0.0,False,True,0.23941334549268545,Sc: 0.2500; Al: 0.2500; Ag: 0.5000
mp-864951,MnAlOs2,"Al, Mn, Os",3,0.0,Cubic,225,Fm-3m,0.0,True,True,0.310724958765787,Mn: 0.2500; Al: 0.2500; Os: 0.5000
mp-977110,NaSnPd2,"Na, Pd, Sn",3,0.0,Cubic,225,Fm-3m,0.0,True,True,0.5245176355471759,Na: 0.2500; Sn: 0.2500; Pd: 0.5000
mp-1187212,Ta2ReTc,"Re, Ta, Tc",3,0.0,Cubic,225,Fm-3m,0.0,True,True,0.19999999999999996,Ta: 0.5000; Re: 0.2500; Tc: 0.2500
mp-865538,Ti2RePd,"Pd, Re, Ti",3,0.0,Cubic,225,Fm-3m,0.0,True,True,0.27617928959282956,Ti: 0.5000; Re: 0.2500; Pd: 0.2500
mp-982870,HfAlIr2,"Al, Hf, Ir",3,0.027841117499999513,Cubic,225,Fm-3m,0.0,True,True,0.3882895182721265,Hf: 0.2500; Al: 0.2500; Ir: 0.5000
mp-866094,HfZnCu2,"Cu, Hf, Zn",3,0.0,Cubic,225,Fm-3m,0.0,True,True,0.24590394466132498,Hf: 0.2500; Zn: 0.2500; Cu: 0.5000
mp-862363,Sc2PdPt,"Pd, Pt, Sc",3,0.0,Cubic,225,Fm-3m,0.0,True,True,0.440908153700972,Sc: 0.5000; Pd: 0.2500; Pt: 0.2500
mp-864947,ZrSnRh2,"Rh, Sn, Zr",3,0.0,Cubic,225,Fm-3m,0.0,True,True,0.387838561775386,Zr: 0.2500; Sn: 0.2500; Rh: 0.5000
mp-1185050,La2TlAg,"Ag, La, Tl",3,0.0,Cubic,225,Fm-3m,0.0,True,True,0.3548503205578374,La: 0.5000; Tl: 0.2500; Ag: 0.2500
mp-983123,HfMgAu2,"Au, Hf, Mg",3,0.0,Cubic,225,Fm-3m,0.0,True,True,0.6175101213745406,Hf: 0.2500; Mg: 0.2500; Au: 0.5000
mp-1186187,NaTl2Sn,"Na, Sn, Tl",3,0.03220633739583434,Cubic,225,Fm-3m,0.0,True,True,0.3745246987850067,Na: 0.2500; Tl: 0.5000; Sn: 0.2500
mp-1187006,ScZn2Cu,"Cu, Sc, Zn",3,0.019352509375000437,Cubic,225,Fm-3m,0.0,True,True,0.19118054294305153,Sc: 0.2500; Zn: 0.5000; Cu: 0.2500
mp-973572,La2TlHg,"Hg, La, Tl",3,0.0013906024999954525,Cubic,225,Fm-3m,0.0,True,True,0.37957212753309477,La: 0.5000; Tl: 0.2500; Hg: 0.2500
mp-1187096,Sr2ZnHg,"Hg, Sr, Zn",3,0.013512228125000192,Cubic,225,Fm-3m,0.0,True,True,0.4546633369868303,Sr: 0.5000; Zn: 0.2500; Hg: 0.2500
mp-867249,TaAlFe2,"Al, Fe, Ta",3,0.0,Cubic,225,Fm-3m,0.32420000000000027,True,False,0.1428941916244324,Ta: 0.2500; Al: 0.2500; Fe: 0.5000
mp-974634,LiAg2Pd,"Ag, Li, Pd",3,0.014468547499998152,Cubic,225,Fm-3m,0.0,True,True,0.4636270052531453,Li: 0.2500; Ag: 0.5000; Pd: 0.2500
mp-867304,BeVFe2,"Be, Fe, V",3,0.0,Cubic,225,Fm-3m,0.0,True,True,0.11694015563526504,Be: 0.2500; V: 0.2500; Fe: 0.5000
mp-1186766,Ta2MoIr,"Ir, Mo, Ta",3,0.0,Cubic,225,Fm-3m,0.0,True,True,0.3402939905434712,Ta: 0.5000; Mo: 0.2500; Ir: 0.2500
mp-1183708,CrSnRh2,"Cr, Rh, Sn",3,0.017585407499998595,Cubic,225,Fm-3m,0.0,True,True,0.2578274616870747,Cr: 0.2500; Sn: 0.2500; Rh: 0.5000
mp-571310,ZrInPt2,"In, Pt, Zr",3,0.046393768068178076,Cubic,225,Fm-3m,0.0,False,True,0.3958771905528278,Zr: 0.2500; In: 0.2500; Pt: 0.5000
mp-1185768,Mg2IrPt,"Ir, Mg, Pt",3,0.0,Cubic,225,Fm-3m,0.0,True,True,0.46585942085569115,Mg: 0.5000; Ir: 0.2500; Pt: 0.2500
mp-1185241,LiY2Tl,"Li, Tl, Y",3,0.017815321874998347,Cubic,225,Fm-3m,0.0,True,True,0.22978250586152119,Li: 0.2500; Y: 0.5000; Tl: 0.2500
mp-1185376,LiLaTl2,"La, Li, Tl",3,0.0,Cubic,225,Fm-3m,0.0,True,True,0.29308701779505697,Li: 0.2500; La: 0.2500; Tl: 0.5000
mp-865654,Y2TlAg,"Ag, Tl, Y",3,0.0,Cubic,225,Fm-3m,0.0,True,True,0.2983601012199855,Y: 0.5000; Tl: 0.2500; Ag: 0.2500
mp-1183598,Ca2InHg,"Ca, Hg, In",3,0.002421209375000899,Cubic,225,Fm-3m,0.0,True,True,0.4517466103912679,Ca: 0.5000; In: 0.2500; Hg: 0.2500
mp-867170,LiGaPt2,"Ga, Li, Pt",3,0.0,Cubic,225,Fm-3m,0.0,True,True,0.5309602150820717,Li: 0.2500; Ga: 0.2500; Pt: 0.5000
mp-866176,Li2PdAu,"Au, Li, Pd",3,0.0,Cubic,225,Fm-3m,0.0,True,True,0.705319076730525,Li: 0.5000; Pd: 0.2500; Au: 0.2500
mp-1185193,La2CdIn,"Cd, In, La",3,0.0,Cubic,225,Fm-3m,0.0,True,True,0.3190905044027477,La: 0.5000; Cd: 0.2500; In: 0.2500
mp-1187188,SrLaPt2,"La, Pt, Sr",3,0.04875910093750235,Cubic,225,Fm-3m,0.0,True,True,0.6297370482987322,Sr: 0.2500; La: 0.2500; Pt: 0.5000
mp-972275,Ti2ReRu,"Re, Ru, Ti",3,0.008236759999999066,Cubic,225,Fm-3m,0.0,True,True,0.27617928959282956,Ti: 0.5000; Re: 0.2500; Ru: 0.2500
mp-862962,CaLaZn2,"Ca, La, Zn",3,0.0,Cubic,225,Fm-3m,0.0,True,True,0.30207614933986426,Ca: 0.2500; La: 0.2500; Zn: 0.5000
mp-977563,LiNbIr2,"Ir, Li, Nb",3,0.0,Cubic,225,Fm-3m,0.0,True,True,0.5050495025242576,Li: 0.2500; Nb: 0.2500; Ir: 0.5000