material_id,formula,elements,num_elements,energy_above_hull,crystal_system,spacegroup_number,spacegroup_symbol,band_gap,theoretical,is_metal,electronegativity_difference,atomic_concentrations
mp-977427,Zn2PtRh,"Pt, Rh, Zn",3,0.0,Cubic,225,Fm-3m,0.0,True,True,0.31499999999999995,Zn: 0.5000; Pt: 0.2500; Rh: 0.2500
mp-1185992,MnCuPt2,"Cu, Mn, Pt",3,0.019051700833335516,Cubic,225,Fm-3m,0.0,True,True,0.3038400072406528,Mn: 0.2500; Cu: 0.2500; Pt: 0.5000
mp-867211,LiCa2In,"Ca, In, Li",3,0.0,Cubic,225,Fm-3m,0.0,True,True,0.3407345007480164,Li: 0.2500; Ca: 0.5000; In: 0.2500
mp-4955,AlVCo2,"Al, Co, V",3,0.0,Cubic,225,Fm-3m,0.0,False,True,0.1301921656629153,Al: 0.2500; V: 0.2500; Co: 0.5000
mp-866194,Li2MgCd,"Cd, Li, Mg",3,0.013729252500000122,Cubic,225,Fm-3m,0.0,True,True,0.29266021253323793,Li: 0.5000; Mg: 0.2500; Cd: 0.2500
mp-865531,TiMn2Al,"Al, Mn, Ti",3,0.0,Cubic,225,Fm-3m,0.0,True,True,0.027726341266023566,Ti: 0.2500; Mn: 0.5000; Al: 0.2500
mp-861725,LiTl2Rh,"Li, Rh, Tl",3,0.0,Cubic,225,Fm-3m,0.0,True,True,0.45964660338133684,Li: 0.2500; Tl: 0.5000; Rh: 0.2500
mp-865804,TaZnRh2,"Rh, Ta, Zn",3,0.0,Cubic,225,Fm-3m,0.0,True,True,0.3564670391494843,Ta: 0.2500; Zn: 0.2500; Rh: 0.5000
mp-971836,Zn2NiIr,"Ir, Ni, Zn",3,0.007683492500000888,Cubic,225,Fm-3m,0.0,True,True,0.22697742178463487,Zn: 0.5000; Ni: 0.2500; Ir: 0.2500
mp-865485,V2CrOs,"Cr, Os, V",3,0.0,Cubic,225,Fm-3m,0.0,True,True,0.24279621084357983,V: 0.5000; Cr: 0.2500; Os: 0.2500
mp-867805,LiCa2Ga,"Ca, Ga, Li",3,0.0009458095833325686,Cubic,225,Fm-3m,0.0,True,True,0.35372128858749796,Li: 0.2500; Ca: 0.5000; Ga: 0.2500
mp-1194002,Zr6Ga16Pt7,"Ga, Pt, Zr",3,0.05031122850574654,Cubic,225,Fm-3m,0.0,False,True,0.3174740526066311,Zr: 0.2069; Ga: 0.5517; Pt: 0.2414
mp-867874,BeVRu2,"Be, Ru, V",3,0.0,Cubic,225,Fm-3m,0.0,True,True,0.3007490648364514,Be: 0.2500; V: 0.2500; Ru: 0.5000
mp-862691,Al2FeCo,"Al, Co, Fe",3,0.0,Cubic,225,Fm-3m,0.0,True,True,0.12376893794486557,Al: 0.5000; Fe: 0.2500; Co: 0.2500
mp-864975,Mg2PdPt,"Mg, Pd, Pt",3,0.0,Cubic,225,Fm-3m,0.0,True,True,0.46585942085569115,Mg: 0.5000; Pd: 0.2500; Pt: 0.2500
mp-865840,Ti2TcIr,"Ir, Tc, Ti",3,0.0,Cubic,225,Fm-3m,0.0,True,True,0.27617928959282956,Ti: 0.5000; Tc: 0.2500; Ir: 0.2500
mp-1186119,NaCdPd2,"Cd, Na, Pd",3,0.0017531259051732917,Cubic,225,Fm-3m,0.0,True,True,0.5198317035349037,Na: 0.2500; Cd: 0.2500; Pd: 0.5000
mp-1186933,Sc2CdGa,"Cd, Ga, Sc",3,0.026029921249998367,Cubic,225,Fm-3m,0.0,True,True,0.19956202043475102,Sc: 0.5000; Cd: 0.2500; Ga: 0.2500
mp-972209,Ta2TcW,"Ta, Tc, W",3,0.005131650000009813,Cubic,225,Fm-3m,0.0,True,True,0.35450669951356345,Ta: 0.5000; Tc: 0.2500; W: 0.2500
mp-1187429,Ti2FeCo,"Co, Fe, Ti",3,0.004524152500000156,Cubic,225,Fm-3m,0.0,True,True,0.1584889586059546,Ti: 0.5000; Fe: 0.2500; Co: 0.2500
mp-3648,Zn2CuAu,"Au, Cu, Zn",3,0.011148087500000514,Cubic,225,Fm-3m,0.0,False,True,0.3639024594585753,Zn: 0.5000; Cu: 0.2500; Au: 0.2500
mp-971737,V2OsRu,"Os, Ru, V",3,0.0,Cubic,225,Fm-3m,0.0,True,True,0.28500000000000014,V: 0.5000; Os: 0.2500; Ru: 0.2500
mp-864768,LiSnIr2,"Ir, Li, Sn",3,0.002993191136360096,Cubic,225,Fm-3m,0.0,True,True,0.5032643440578719,Li: 0.2500; Sn: 0.2500; Ir: 0.5000
mp-861616,LiSc2Ir,"Ir, Li, Sc",3,0.0,Cubic,225,Fm-3m,0.0,True,True,0.4464022849403888,Li: 0.2500; Sc: 0.5000; Ir: 0.2500
mp-1185195,La2InAg,"Ag, In, La",3,0.0024306099999993336,Cubic,225,Fm-3m,0.0,True,True,0.38120696478422317,La: 0.5000; In: 0.2500; Ag: 0.2500
mp-862432,Sc2AgIr,"Ag, Ir, Sc",3,0.009654504910713513,Cubic,225,Fm-3m,0.0,True,True,0.3651968647181955,Sc: 0.5000; Ag: 0.2500; Ir: 0.2500
mp-1184229,Ga2CoIr,"Co, Ga, Ir",3,0.035522045000000446,Cubic,225,Fm-3m,0.0,True,True,0.16132265804901685,Ga: 0.5000; Co: 0.2500; Ir: 0.2500
mp-866183,Ti2ZnRe,"Re, Ti, Zn",3,0.0,Cubic,225,Fm-3m,0.0,True,True,0.14703315952532608,Ti: 0.5000; Zn: 0.2500; Re: 0.2500
mp-862548,Sc2AlZn,"Al, Sc, Zn",3,0.0,Cubic,225,Fm-3m,0.0,True,True,0.1357387196049822,Sc: 0.5000; Al: 0.2500; Zn: 0.2500
mp-22731,MnInNi2,"In, Mn, Ni",3,0.03854070617816063,Cubic,225,Fm-3m,0.0,False,True,0.14703315952532608,Mn: 0.2500; In: 0.2500; Ni: 0.5000
mp-864972,Mg2PdAu,"Au, Mg, Pd",3,0.0004032624999981138,Cubic,225,Fm-3m,0.0,True,True,0.5434611301647985,Mg: 0.5000; Pd: 0.2500; Au: 0.2500
mp-972327,Zr2CoOs,"Co, Os, Zr",3,0.0,Cubic,225,Fm-3m,0.0,True,True,0.37259227045122667,Zr: 0.5000; Co: 0.2500; Os: 0.2500
mp-1194154,Sc6Al16Rh7,"Al, Rh, Sc",3,0.0,Cubic,225,Fm-3m,0.0,False,True,0.3304333622631826,Sc: 0.2069; Al: 0.5517; Rh: 0.2414
mp-30817,LiAl2Pd,"Al, Li, Pd",3,0.0,Cubic,225,Fm-3m,0.0,False,True,0.43145104009609253,Li: 0.2500; Al: 0.5000; Pd: 0.2500
mp-1187723,Y2CuAu,"Au, Cu, Y",3,0.025544960000000394,Cubic,225,Fm-3m,0.0,True,True,0.5488169093604898,Y: 0.5000; Cu: 0.2500; Au: 0.2500
mp-981539,Hf2IrPd,"Hf, Ir, Pd",3,0.02405564756944578,Cubic,225,Fm-3m,0.0,True,True,0.45000000000000007,Hf: 0.5000; Ir: 0.2500; Pd: 0.2500
mp-1187470,TiCrTc2,"Cr, Tc, Ti",3,0.03737960249999972,Cubic,225,Fm-3m,0.0,True,True,0.15588457268119893,Ti: 0.2500; Cr: 0.2500; Tc: 0.5000
mp-1183697,CdRh2Pb,"Cd, Pb, Rh",3,0.0,Cubic,225,Fm-3m,0.0,True,True,0.26348624252510794,Cd: 0.2500; Rh: 0.5000; Pb: 0.2500
mp-862715,Al2PdRu,"Al, Pd, Ru",3,0.0,Cubic,225,Fm-3m,0.0,True,True,0.29500000000000004,Al: 0.5000; Pd: 0.2500; Ru: 0.2500
mp-4828,HfNi2Sn,"Hf, Ni, Sn",3,0.04730787291071081,Cubic,225,Fm-3m,0.0,False,True,0.27212129648375555,Hf: 0.2500; Ni: 0.5000; Sn: 0.2500
mp-865432,Y2NiIr,"Ir, Ni, Y",3,0.026191693466797616,Cubic,225,Fm-3m,0.0,True,True,0.42990551287463163,Y: 0.5000; Ni: 0.2500; Ir: 0.2500
mp-867926,LiInPd2,"In, Li, Pd",3,0.0,Cubic,225,Fm-3m,0.0,True,True,0.49809637621649094,Li: 0.2500; In: 0.2500; Pd: 0.5000
mp-864839,Zn2PdRh,"Pd, Rh, Zn",3,0.0,Cubic,225,Fm-3m,0.0,True,True,0.2963528302547489,Zn: 0.5000; Pd: 0.2500; Rh: 0.2500
mp-867270,Be2CoPt,"Be, Co, Pt",3,0.0,Cubic,225,Fm-3m,0.0,True,True,0.29159046623646656,Be: 0.5000; Co: 0.2500; Pt: 0.2500
mp-865561,Y2AgRu,"Ag, Ru, Y",3,0.0,Cubic,225,Fm-3m,0.0,True,True,0.4331498008772485,Y: 0.5000; Ag: 0.2500; Ru: 0.2500
mp-1187423,Ti2BeTc,"Be, Tc, Ti",3,0.0154324764583329,Cubic,225,Fm-3m,0.0,True,True,0.15204851199534963,Ti: 0.5000; Be: 0.2500; Tc: 0.2500
mp-865179,Hf2FeOs,"Fe, Hf, Os",3,0.0,Cubic,225,Fm-3m,0.0,True,True,0.3806819538670044,Hf: 0.5000; Fe: 0.2500; Os: 0.2500
mp-574025,HfInAu2,"Au, Hf, In",3,0.045808078593751134,Cubic,225,Fm-3m,0.0,False,True,0.5280151512977634,Hf: 0.2500; In: 0.2500; Au: 0.5000
mp-865712,Ti2MnNi,"Mn, Ni, Ti",3,0.0,Cubic,225,Fm-3m,0.0,True,True,0.15882380174268587,Ti: 0.5000; Mn: 0.2500; Ni: 0.2500
mp-1183456,Ca2AgPd,"Ag, Ca, Pd",3,0.033896488020833004,Cubic,225,Fm-3m,0.0,True,True,0.540988678254915,Ca: 0.5000; Ag: 0.2500; Pd: 0.2500
mp-1184567,Hf2TcIr,"Hf, Ir, Tc",3,0.0,Cubic,225,Fm-3m,0.0,True,True,0.3897114317029974,Hf: 0.5000; Tc: 0.2500; Ir: 0.2500
mp-20801,LiIn2Pd,"In, Li, Pd",3,0.0,Cubic,225,Fm-3m,0.0,False,True,0.4416729559300638,Li: 0.2500; In: 0.5000; Pd: 0.2500
mp-865914,TiVTc2,"Tc, Ti, V",3,0.0,Cubic,225,Fm-3m,0.0,True,True,0.1606821396422141,Ti: 0.2500; V: 0.2500; Tc: 0.5000
mp-983358,HfAlFe2,"Al, Fe, Hf",3,0.010338156499999585,Cubic,225,Fm-3m,0.0,True,True,0.2171836780239252,Hf: 0.2500; Al: 0.2500; Fe: 0.5000
mp-867908,LaBiAu2,"Au, Bi, La",3,0.035571406565320096,Cubic,225,Fm-3m,0.0,True,True,0.5881326381013045,La: 0.2500; Bi: 0.2500; Au: 0.5000
mp-865110,NaMgTl2,"Mg, Na, Tl",3,0.0,Cubic,225,Fm-3m,0.0,True,True,0.2838133189263675,Na: 0.2500; Mg: 0.2500; Tl: 0.5000
mp-1185625,MgZrPt2,"Mg, Pt, Zr",3,0.0,Cubic,225,Fm-3m,0.0,True,True,0.4800520805079381,Mg: 0.2500; Zr: 0.2500; Pt: 0.5000
mp-1183329,Ba2InHg,"Ba, Hg, In",3,0.009731376250000423,Cubic,225,Fm-3m,0.0,True,True,0.50601383380299,Ba: 0.5000; In: 0.2500; Hg: 0.2500
mp-971827,Zn2CuPt,"Cu, Pt, Zn",3,0.0038450894078936315,Cubic,225,Fm-3m,0.0,True,True,0.2577789750930048,Zn: 0.5000; Cu: 0.2500; Pt: 0.2500
mp-862446,TaAlRu2,"Al, Ru, Ta",3,0.0,Cubic,225,Fm-3m,0.0,True,True,0.3248364973336587,Ta: 0.2500; Al: 0.2500; Ru: 0.5000
mp-864971,MnSnRu2,"Mn, Ru, Sn",3,0.0,Cubic,225,Fm-3m,0.0,True,True,0.26555366689240056,Mn: 0.2500; Sn: 0.2500; Ru: 0.5000
mp-867160,LiCd2Au,"Au, Cd, Li",3,0.0,Cubic,225,Fm-3m,0.0,True,True,0.5526526938322115,Li: 0.2500; Cd: 0.5000; Au: 0.2500
mp-866031,Al2FeIr,"Al, Fe, Ir",3,0.0,Cubic,225,Fm-3m,0.0,True,True,0.24107830678018297,Al: 0.5000; Fe: 0.2500; Ir: 0.2500
mp-865963,LiGaAg2,"Ag, Ga, Li",3,0.0,Cubic,225,Fm-3m,0.0,True,True,0.39707524475847145,Li: 0.2500; Ga: 0.2500; Ag: 0.5000
mp-865025,HfTaRe2,"Hf, Re, Ta",3,0.0,Cubic,225,Fm-3m,0.0,True,True,0.2598076211353315,Hf: 0.2500; Ta: 0.2500; Re: 0.5000
mp-865679,TiSnPd2,"Pd, Sn, Ti",3,0.013997537708327457,Cubic,225,Fm-3m,0.0,True,True,0.2695830113341715,Ti: 0.2500; Sn: 0.2500; Pd: 0.5000
mp-865713,Li2TlBi,"Bi, Li, Tl",3,0.0,Cubic,225,Fm-3m,0.22930000000000028,True,False,0.4431703961232068,Li: 0.5000; Tl: 0.2500; Bi: 0.2500
mp-977113,MgPdAu2,"Au, Mg, Pd",3,0.0218674735000004,Cubic,225,Fm-3m,0.0,True,True,0.5030593901320201,Mg: 0.2500; Pd: 0.2500; Au: 0.5000
mp-862623,ScSnRh2,"Rh, Sc, Sn",3,0.0,Cubic,225,Fm-3m,0.0,True,True,0.3756327994198589,Sc: 0.2500; Sn: 0.2500; Rh: 0.5000
mp-3909,ZrAlCo2,"Al, Co, Zr",3,0.0,Cubic,225,Fm-3m,0.0,False,True,0.22765104875664413,Zr: 0.2500; Al: 0.2500; Co: 0.5000
mp-867327,Hf2TcRu,"Hf, Ru, Tc",3,0.0,Cubic,225,Fm-3m,0.0,True,True,0.3897114317029974,Hf: 0.5000; Tc: 0.2500; Ru: 0.2500
mp-867210,LiCa2Hg,"Ca, Hg, Li",3,0.02021490678240756,Cubic,225,Fm-3m,0.0,True,True,0.4359759167660526,Li: 0.2500; Ca: 0.5000; Hg: 0.2500
mp-863744,Ca2PdAu,"Au, Ca, Pd",3,0.013046250833333772,Cubic,225,Fm-3m,0.0,True,True,0.6954674686856317,Ca: 0.5000; Pd: 0.2500; Au: 0.2500
mp-866012,Hf2ZnRe,"Hf, Re, Zn",3,0.0,Cubic,225,Fm-3m,0.0,True,True,0.2534141866589161,Hf: 0.5000; Zn: 0.2500; Re: 0.2500
mp-863724,InPd2Au,"Au, In, Pd",3,0.0,Cubic,225,Fm-3m,0.0,True,True,0.26944387170614964,In: 0.2500; Pd: 0.5000; Au: 0.2500
mp-867306,AlCuAu2,"Al, Au, Cu",3,0.0,Cubic,225,Fm-3m,0.0,True,True,0.405670740872447,Al: 0.2500; Cu: 0.2500; Au: 0.5000
mp-1207425,Zr6Be15Ni8,"Be, Ni, Zr",3,0.0,Cubic,225,Fm-3m,0.0,True,True,0.20459408494802422,Zr: 0.2069; Be: 0.5172; Ni: 0.2759
mp-867251,LiZn2Pt,"Li, Pt, Zn",3,0.0,Cubic,225,Fm-3m,0.0,True,True,0.4597281805589037,Li: 0.2500; Zn: 0.5000; Pt: 0.2500
mp-865717,Ti2ReIr,"Ir, Re, Ti",3,0.0,Cubic,225,Fm-3m,0.0,True,True,0.27617928959282956,Ti: 0.5000; Re: 0.2500; Ir: 0.2500
mp-20744,ZrInNi2,"In, Ni, Zr",3,0.0,Cubic,225,Fm-3m,0.0,False,True,0.23836683913665502,Zr: 0.2500; In: 0.2500; Ni: 0.5000
mp-862743,LaCdAu2,"Au, Cd, La",3,0.0,Cubic,225,Fm-3m,0.0,True,True,0.6093182665898011,La: 0.2500; Cd: 0.2500; Au: 0.5000
mp-977162,NaTl2Pb,"Na, Pb, Tl",3,0.020959664166667835,Cubic,225,Fm-3m,0.0,True,True,0.495,Na: 0.2500; Tl: 0.5000; Pb: 0.2500
mp-865503,YCdAg2,"Ag, Cd, Y",3,0.0,Cubic,225,Fm-3m,0.0,True,True,0.2898598799420161,Y: 0.2500; Cd: 0.2500; Ag: 0.5000
mp-982725,Nb2RuW,"Nb, Ru, W",3,0.0,Cubic,225,Fm-3m,0.0,True,True,0.3446737587922817,Nb: 0.5000; Ru: 0.2500; W: 0.2500
mp-20265,LiIn2Pt,"In, Li, Pt",3,0.0,Cubic,225,Fm-3m,0.0,False,True,0.46569840025492887,Li: 0.2500; In: 0.5000; Pt: 0.2500
mp-973126,ScBiPd2,"Bi, Pd, Sc",3,0.07514109624999943,Cubic,225,Fm-3m,0.0,True,True,0.34565155865408737,Sc: 0.2500; Bi: 0.2500; Pd: 0.5000
mp-1186935,Sc2CdOs,"Cd, Os, Sc",3,0.0019274264236104344,Cubic,225,Fm-3m,0.0,True,True,0.34361133566865926,Sc: 0.5000; Cd: 0.2500; Os: 0.2500
mp-972236,V2MoW,"Mo, V, W",3,0.0,Cubic,225,Fm-3m,0.0,True,True,0.3228389691471586,V: 0.5000; Mo: 0.2500; W: 0.2500
mp-862663,LaPbAu2,"Au, La, Pb",3,0.0,Cubic,225,Fm-3m,0.0,True,True,0.5993903152370749,La: 0.2500; Pb: 0.2500; Au: 0.5000
mp-1184829,InFeRh2,"Fe, In, Rh",3,0.01502375249999588,Cubic,225,Fm-3m,0.0,True,True,0.2381569860407205,In: 0.2500; Fe: 0.2500; Rh: 0.5000
mp-867287,LiInAu2,"Au, In, Li",3,0.0,Cubic,225,Fm-3m,0.0,True,True,0.6452906321960671,Li: 0.2500; In: 0.2500; Au: 0.5000
mp-1183640,CdHgPd2,"Cd, Hg, Pd",3,0.005209170000000096,Cubic,225,Fm-3m,0.0,True,True,0.20861148098798407,Cd: 0.2500; Hg: 0.2500; Pd: 0.5000
mp-867156,ScGaRu2,"Ga, Ru, Sc",3,0.0,Cubic,225,Fm-3m,0.0,True,True,0.3462206666275138,Sc: 0.2500; Ga: 0.2500; Ru: 0.5000
mp-1186959,Sc2TlZn,"Sc, Tl, Zn",3,0.0,Cubic,225,Fm-3m,0.0,True,True,0.13790848414800297,Sc: 0.5000; Tl: 0.2500; Zn: 0.2500
mp-1188004,Zr2TcRh,"Rh, Tc, Zr",3,0.0,Cubic,225,Fm-3m,0.0,True,True,0.40305086527633194,Zr: 0.5000; Tc: 0.2500; Rh: 0.2500
mp-867848,LaMgCd2,"Cd, La, Mg",3,0.0,Cubic,225,Fm-3m,0.0,True,True,0.25361141535822074,La: 0.2500; Mg: 0.2500; Cd: 0.5000
mp-862609,ScReTc2,"Re, Sc, Tc",3,0.04590053096353586,Cubic,225,Fm-3m,0.0,True,True,0.23382685902179834,Sc: 0.2500; Re: 0.2500; Tc: 0.5000
mp-867833,LaMgHg2,"Hg, La, Mg",3,0.0,Cubic,225,Fm-3m,0.0,True,True,0.4043745170012571,La: 0.2500; Mg: 0.2500; Hg: 0.5000
mp-1186957,Sc2OsRh,"Os, Rh, Sc",3,0.0034690164236117482,Cubic,225,Fm-3m,0.0,True,True,0.440908153700972,Sc: 0.5000; Os: 0.2500; Rh: 0.2500
mp-865569,Ti2MnIr,"Ir, Mn, Ti",3,0.0,Cubic,225,Fm-3m,0.0,True,True,0.28437431318598383,Ti: 0.5000; Mn: 0.2500; Ir: 0.2500
mp-864948,MnGaPt2,"Ga, Mn, Pt",3,0.0090562918749999,Cubic,225,Fm-3m,0.0,True,True,0.31376742979474453,Mn: 0.2500; Ga: 0.2500; Pt: 0.5000
mp-865164,HfCdCu2,"Cd, Cu, Hf",3,0.03930421125000194,Cubic,225,Fm-3m,0.0,True,True,0.24498724456591606,Hf: 0.2500; Cd: 0.2500; Cu: 0.5000
mp-567787,LiInAg2,"Ag, In, Li",3,0.0,Cubic,225,Fm-3m,0.0,False,True,0.3944933459514875,Li: 0.2500; In: 0.2500; Ag: 0.5000
mp-979291,TaZnOs2,"Os, Ta, Zn",3,0.0,Cubic,225,Fm-3m,0.0,True,True,0.31696805832764924,Ta: 0.2500; Zn: 0.2500; Os: 0.5000
mp-1183198,Ba2CdSn,"Ba, Cd, Sn",3,0.004861536875002237,Cubic,225,Fm-3m,0.0,True,True,0.47714646598293065,Ba: 0.5000; Cd: 0.2500; Sn: 0.2500
mp-867173,SrInHg2,"Hg, In, Sr",3,0.0,Cubic,225,Fm-3m,0.0,True,True,0.43234101123997015,Sr: 0.2500; In: 0.2500; Hg: 0.5000
mp-1193205,Zr6Ga16Rh7,"Ga, Rh, Zr",3,0.0019322581884413381,Cubic,225,Fm-3m,0.0,False,True,0.3174740526066311,Zr: 0.2069; Ga: 0.5517; Rh: 0.2414
mp-1183313,Ba2TlHg,"Ba, Hg, Tl",3,0.0,Cubic,225,Fm-3m,0.0,True,True,0.4792181131802094,Ba: 0.5000; Tl: 0.2500; Hg: 0.2500
mp-865729,CaAg2Sn,"Ag, Ca, Sn",3,0.0,Cubic,225,Fm-3m,0.0,True,True,0.40721615881494677,Ca: 0.2500; Ag: 0.5000; Sn: 0.2500
mp-1183135,Al2TcPd,"Al, Pd, Tc",3,0.002635897380947938,Cubic,225,Fm-3m,0.0,True,True,0.24423349483639628,Al: 0.5000; Tc: 0.2500; Pd: 0.2500
mp-861604,Ca2TlPb,"Ca, Pb, Tl",3,0.0,Cubic,225,Fm-3m,0.0,True,True,0.5483327001009515,Ca: 0.5000; Tl: 0.2500; Pb: 0.2500
mp-865433,Y2MgRu,"Mg, Ru, Y",3,0.060845908562500384,Cubic,225,Fm-3m,0.0,True,True,0.4129996973364509,Y: 0.5000; Mg: 0.2500; Ru: 0.2500
mp-1183633,CdPd2Au,"Au, Cd, Pd",3,0.0,Cubic,225,Fm-3m,0.0,True,True,0.3035107082130712,Cd: 0.2500; Pd: 0.5000; Au: 0.2500
mp-972217,Ti2CuTc,"Cu, Tc, Ti",3,0.0,Cubic,225,Fm-3m,0.0,True,True,0.17999999999999994,Ti: 0.5000; Cu: 0.2500; Tc: 0.2500
mp-862377,LiBe2Ir,"Be, Ir, Li",3,0.0,Cubic,225,Fm-3m,0.0,True,True,0.43145104009609253,Li: 0.2500; Be: 0.5000; Ir: 0.2500
mp-1183503,Ca2HgBi,"Bi, Ca, Hg",3,0.020743057708333623,Cubic,225,Fm-3m,0.0,True,True,0.5050495025242575,Ca: 0.5000; Hg: 0.2500; Bi: 0.2500
mp-981312,ZrCu2Hg,"Cu, Hg, Zr",3,0.02472129156862657,Cubic,225,Fm-3m,0.0,True,True,0.26442153845706284,Zr: 0.2500; Cu: 0.5000; Hg: 0.2500
mp-867274,Be2CoIr,"Be, Co, Ir",3,0.0,Cubic,225,Fm-3m,0.0,True,True,0.26081602711489954,Be: 0.5000; Co: 0.2500; Ir: 0.2500
mp-1187491,TiZn2Pd,"Pd, Ti, Zn",3,0.016788422499998568,Cubic,225,Fm-3m,0.0,True,True,0.25797286679028875,Ti: 0.2500; Zn: 0.5000; Pd: 0.2500
mp-862368,Sc2NiPt,"Ni, Pt, Sc",3,0.0,Cubic,225,Fm-3m,0.0,True,True,0.39008813106783946,Sc: 0.5000; Ni: 0.2500; Pt: 0.2500
mp-1183463,Ca2ZnGa,"Ca, Ga, Zn",3,0.005286312463234744,Cubic,225,Fm-3m,0.0,True,True,0.36935755034925166,Ca: 0.5000; Zn: 0.2500; Ga: 0.2500
mp-1186185,NaTl2In,"In, Na, Tl",3,0.0,Cubic,225,Fm-3m,0.0,True,True,0.32843378328058764,Na: 0.2500; Tl: 0.5000; In: 0.2500
mp-864661,ZnCuPd2,"Cu, Pd, Zn",3,0.0,Cubic,225,Fm-3m,0.0,True,True,0.23014940799402472,Zn: 0.2500; Cu: 0.2500; Pd: 0.5000
mp-1206362,HfAlPt2,"Al, Hf, Pt",3,0.07868096437499617,Cubic,225,Fm-3m,0.0,True,True,0.4268123123809808,Hf: 0.2500; Al: 0.2500; Pt: 0.5000
mp-1187419,Ti2GaTc,"Ga, Tc, Ti",3,0.018164497499999044,Cubic,225,Fm-3m,0.0,True,True,0.1606821396422141,Ti: 0.5000; Ga: 0.2500; Tc: 0.2500
mp-864857,NbZnCo2,"Co, Nb, Zn",3,0.0,Cubic,225,Fm-3m,0.0,True,True,0.12871965661855994,Nb: 0.2500; Zn: 0.2500; Co: 0.5000
mp-1184754,K2RbBi,"Bi, K, Rb",3,0.007558438888888741,Cubic,225,Fm-3m,0.13990000000000014,True,False,0.5196152422706632,K: 0.5000; Rb: 0.2500; Bi: 0.2500
mp-1183191,AlCuRh2,"Al, Cu, Rh",3,0.01457768500000256,Cubic,225,Fm-3m,0.0,True,True,0.28181332473820314,Al: 0.2500; Cu: 0.2500; Rh: 0.5000
mp-1186941,Sc2CuPd,"Cu, Pd, Sc",3,0.0,Cubic,225,Fm-3m,0.0,True,True,0.36093628246547893,Sc: 0.5000; Cu: 0.2500; Pd: 0.2500
mp-865931,Ti2TcPd,"Pd, Tc, Ti",3,0.0,Cubic,225,Fm-3m,0.0,True,True,0.27617928959282956,Ti: 0.5000; Tc: 0.2500; Pd: 0.2500
mp-1187730,Y2ZnRh,"Rh, Y, Zn",3,0.01105973446428532,Cubic,225,Fm-3m,0.0,True,True,0.4340146886915234,Y: 0.5000; Zn: 0.2500; Rh: 0.2500
mp-1185618,MgVRh2,"Mg, Rh, V",3,0.009542651250000311,Cubic,225,Fm-3m,0.0,True,True,0.4205056480001189,Mg: 0.2500; V: 0.2500; Rh: 0.5000
mp-865707,TiSnRh2,"Rh, Sn, Ti",3,0.0,Cubic,225,Fm-3m,0.0,True,True,0.30376800358168066,Ti: 0.2500; Sn: 0.2500; Rh: 0.5000
mp-864974,Hf2CuOs,"Cu, Hf, Os",3,0.012591963653848737,Cubic,225,Fm-3m,0.0,True,True,0.3897114317029974,Hf: 0.5000; Cu: 0.2500; Os: 0.2500
mp-600125,HfInCu2,"Cu, Hf, In",3,0.0,Cubic,225,Fm-3m,0.0,False,True,0.24738633753705958,Hf: 0.2500; In: 0.2500; Cu: 0.5000
mp-867834,LiHfPt2,"Hf, Li, Pt",3,0.0,Cubic,225,Fm-3m,0.0,True,True,0.5811196090307054,Li: 0.2500; Hf: 0.2500; Pt: 0.5000
mp-867814,LaTlAu2,"Au, La, Tl",3,0.0,Cubic,225,Fm-3m,0.0,True,True,0.617980582219215,La: 0.2500; Tl: 0.2500; Au: 0.5000
mp-1183453,Ca2TlHg,"Ca, Hg, Tl",3,0.0,Cubic,225,Fm-3m,0.0,True,True,0.4267024724559257,Ca: 0.5000; Tl: 0.2500; Hg: 0.2500
mp-865987,Li2AgPd,"Ag, Li, Pd",3,0.0,Cubic,225,Fm-3m,0.0,True,True,0.5508345940479774,Li: 0.5000; Ag: 0.2500; Pd: 0.2500
mp-865966,BeAlIr2,"Al, Be, Ir",3,0.0,Cubic,225,Fm-3m,0.0,True,True,0.30532769281544053,Be: 0.2500; Al: 0.2500; Ir: 0.5000
mp-1185542,CsK2Rb,"Cs, K, Rb",3,0.0380912645862066,Cubic,225,Fm-3m,0.0,True,True,0.012990381056766543,Cs: 0.2500; K: 0.5000; Rb: 0.2500
mp-865128,NaSr2Tl,"Na, Sr, Tl",3,0.0,Cubic,225,Fm-3m,0.0,True,True,0.2931190031369512,Na: 0.2500; Sr: 0.5000; Tl: 0.2500
mp-30658,VGaNi2,"Ga, Ni, V",3,0.0223659731018504,Cubic,225,Fm-3m,0.0,False,True,0.11434596626029273,V: 0.2500; Ga: 0.2500; Ni: 0.5000
mp-976261,NaCa2In,"Ca, In, Na",3,0.031864780362068856,Cubic,225,Fm-3m,0.0,True,True,0.3490254288730264,Na: 0.2500; Ca: 0.5000; In: 0.2500
mp-1185960,MgScAu2,"Au, Mg, Sc",3,0.0,Cubic,225,Fm-3m,0.0,True,True,0.6027592803101417,Mg: 0.2500; Sc: 0.2500; Au: 0.5000
mp-865582,Li2CdPd,"Cd, Li, Pd",3,0.0,Cubic,225,Fm-3m,0.0,True,True,0.5150910113756597,Li: 0.5000; Cd: 0.2500; Pd: 0.2500
mp-867235,LiY2Ir,"Ir, Li, Y",3,0.0,Cubic,225,Fm-3m,0.0,True,True,0.46933463541486053,Li: 0.2500; Y: 0.5000; Ir: 0.2500
mp-862712,Sc2CoIr,"Co, Ir, Sc",3,0.0,Cubic,225,Fm-3m,0.0,True,True,0.35832945734337834,Sc: 0.5000; Co: 0.2500; Ir: 0.2500
mp-867280,Be2IrPt,"Be, Ir, Pt",3,0.0,Cubic,225,Fm-3m,0.0,True,True,0.33619190948028477,Be: 0.5000; Ir: 0.2500; Pt: 0.2500
mp-1184758,K2HgAu,"Au, Hg, K",3,0.023027889958331826,Cubic,225,Fm-3m,0.0,True,True,0.7497166131279206,K: 0.5000; Hg: 0.2500; Au: 0.2500
mp-672340,LiIn2Ru,"In, Li, Ru",3,0.037866556666667606,Cubic,225,Fm-3m,0.0,False,True,0.4416729559300638,Li: 0.2500; In: 0.5000; Ru: 0.2500
mp-867120,TaMn2Al,"Al, Mn, Ta",3,0.0,Cubic,225,Fm-3m,0.0,True,True,0.038971143170299774,Ta: 0.2500; Mn: 0.5000; Al: 0.2500
mp-867817,LaTlAg2,"Ag, La, Tl",3,0.03128740287990439,Cubic,225,Fm-3m,0.0,True,True,0.33915335764223237,La: 0.2500; Tl: 0.2500; Ag: 0.5000
mp-1100772,TiVRu2,"Ru, Ti, V",3,0.035782760000000025,Cubic,225,Fm-3m,0.0,True,True,0.30914195768287434,Ti: 0.2500; V: 0.2500; Ru: 0.5000